n -t 0 -s 0 -S DLABEL -l "tcp source" -L ""
n -t 0 -s 1 -S DLABEL -l "udp source" -L ""
V -t * -v 1.0a5 -a 0
A -t * -n 1 -p 0 -o 0x7fffffff -c 30 -a 1
A -t * -h 1 -m 1073741823 -s 0
c -t * -i 1 -n Red
c -t * -i 2 -n Blue
n -t * -a 4 -s 4 -S UP -v circle -c black -i black
n -t * -a 0 -s 0 -S UP -v circle -c black -i black
n -t * -a 5 -s 5 -S UP -v circle -c black -i black
n -t * -a 1 -s 1 -S UP -v circle -c black -i black
n -t * -a 2 -s 2 -S UP -v circle -c black -i black
n -t * -a 3 -s 3 -S UP -v circle -c black -i black
l -t * -s 0 -d 2 -S UP -r 2000000 -D 0.01 -c black -o right-up
l -t * -s 1 -d 2 -S UP -r 2000000 -D 0.01 -c black -o right-down
l -t * -s 2 -d 3 -S UP -r 300000 -D 0.10000000000000001 -c black -o right
X -t * -n 6 -r 0.5Mb -D 40ms -o left
L -t * -s 6 -d 3 -o up
L -t * -s 6 -d 4 -o down
L -t * -s 6 -d 5 -o up
+ -t 0.5 -s 0 -d 2 -p tcp -e 40 -c 1 -i 0 -a 1 -x {0.0 4.0 0 ------- null}
- -t 0.5 -s 0 -d 2 -p tcp -e 40 -c 1 -i 0 -a 1 -x {0.0 4.0 0 ------- null}
h -t 0.5 -s 0 -d 2 -p tcp -e 40 -c 1 -i 0 -a 1 -x {0.0 4.0 -1 ------- null}
r -t 0.51016 -s 0 -d 2 -p tcp -e 40 -c 1 -i 0 -a 1 -x {0.0 4.0 0 ------- null}
+ -t 0.51016 -s 2 -d 3 -p tcp -e 40 -c 1 -i 0 -a 1 -x {0.0 4.0 0 ------- null}
- -t 0.51016 -s 2 -d 3 -p tcp -e 40 -c 1 -i 0 -a 1 -x {0.0 4.0 0 ------- null}
h -t 0.51016 -s 2 -d 3 -p tcp -e 40 -c 1 -i 0 -a 1 -x {0.0 4.0 -1 ------- null}
+ -t 0.6 -s 1 -d 2 -p cbr -e 512 -c 0 -i 1 -a 0 -x {1.0 5.0 0 ------- null}
- -t 0.6 -s 1 -d 2 -p cbr -e 512 -c 0 -i 1 -a 0 -x {1.0 5.0 0 ------- null}
h -t 0.6 -s 1 -d 2 -p cbr -e 512 -c 0 -i 1 -a 0 -x {1.0 5.0 -1 ------- null}
+ -t 0.609142857142857 -s 1 -d 2 -p cbr -e 512 -c 0 -i 2 -a 0 -x {1.0 5.0 1 ------- null}
- -t 0.609142857142857 -s 1 -d 2 -p cbr -e 512 -c 0 -i 2 -a 0 -x {1.0 5.0 1 ------- null}
h -t 0.609142857142857 -s 1 -d 2 -p cbr -e 512 -c 0 -i 2 -a 0 -x {1.0 5.0 -1 ------- null}
r -t 0.611226666666667 -s 2 -d 3 -p tcp -e 40 -c 1 -i 0 -a 1 -x {0.0 4.0 0 ------- null}
h -t 0.611226666666667 -s 3 -d 6 -p tcp -e 40 -c 1 -i 0 -a 1 -x {0.0 4.0 0 ------- null}
r -t 0.612048 -s 1 -d 2 -p cbr -e 512 -c 0 -i 1 -a 0 -x {1.0 5.0 0 ------- null}
+ -t 0.612048 -s 2 -d 3 -p cbr -e 512 -c 0 -i 1 -a 0 -x {1.0 5.0 0 ------- null}
- -t 0.612048 -s 2 -d 3 -p cbr -e 512 -c 0 -i 1 -a 0 -x {1.0 5.0 0 ------- null}
h -t 0.612048 -s 2 -d 3 -p cbr -e 512 -c 0 -i 1 -a 0 -x {1.0 5.0 -1 ------- null}
+ -t 0.618285714285714 -s 1 -d 2 -p cbr -e 512 -c 0 -i 3 -a 0 -x {1.0 5.0 2 ------- null}
- -t 0.618285714285714 -s 1 -d 2 -p cbr -e 512 -c 0 -i 3 -a 0 -x {1.0 5.0 2 ------- null}
h -t 0.618285714285714 -s 1 -d 2 -p cbr -e 512 -c 0 -i 3 -a 0 -x {1.0 5.0 -1 ------- null}
r -t 0.621190857142857 -s 1 -d 2 -p cbr -e 512 -c 0 -i 2 -a 0 -x {1.0 5.0 1 ------- null}
+ -t 0.621190857142857 -s 2 -d 3 -p cbr -e 512 -c 0 -i 2 -a 0 -x {1.0 5.0 1 ------- null}
- -t 0.625701333333333 -s 2 -d 3 -p cbr -e 512 -c 0 -i 2 -a 0 -x {1.0 5.0 1 ------- null}
h -t 0.625701333333333 -s 2 -d 3 -p cbr -e 512 -c 0 -i 2 -a 0 -x {1.0 5.0 -1 ------- null}
+ -t 0.627428571428571 -s 1 -d 2 -p cbr -e 512 -c 0 -i 4 -a 0 -x {1.0 5.0 3 ------- null}
- -t 0.627428571428571 -s 1 -d 2 -p cbr -e 512 -c 0 -i 4 -a 0 -x {1.0 5.0 3 ------- null}
h -t 0.627428571428571 -s 1 -d 2 -p cbr -e 512 -c 0 -i 4 -a 0 -x {1.0 5.0 -1 ------- null}
r -t 0.630333714285714 -s 1 -d 2 -p cbr -e 512 -c 0 -i 3 -a 0 -x {1.0 5.0 2 ------- null}
+ -t 0.630333714285714 -s 2 -d 3 -p cbr -e 512 -c 0 -i 3 -a 0 -x {1.0 5.0 2 ------- null}
+ -t 0.636571428571428 -s 1 -d 2 -p cbr -e 512 -c 0 -i 5 -a 0 -x {1.0 5.0 4 ------- null}
- -t 0.636571428571428 -s 1 -d 2 -p cbr -e 512 -c 0 -i 5 -a 0 -x {1.0 5.0 4 ------- null}
h -t 0.636571428571428 -s 1 -d 2 -p cbr -e 512 -c 0 -i 5 -a 0 -x {1.0 5.0 -1 ------- null}
- -t 0.639354666666667 -s 2 -d 3 -p cbr -e 512 -c 0 -i 3 -a 0 -x {1.0 5.0 2 ------- null}
h -t 0.639354666666667 -s 2 -d 3 -p cbr -e 512 -c 0 -i 3 -a 0 -x {1.0 5.0 -1 ------- null}
r -t 0.639476571428571 -s 1 -d 2 -p cbr -e 512 -c 0 -i 4 -a 0 -x {1.0 5.0 3 ------- null}
+ -t 0.639476571428571 -s 2 -d 3 -p cbr -e 512 -c 0 -i 4 -a 0 -x {1.0 5.0 3 ------- null}
+ -t 0.645714285714286 -s 1 -d 2 -p cbr -e 512 -c 0 -i 6 -a 0 -x {1.0 5.0 5 ------- null}
- -t 0.645714285714286 -s 1 -d 2 -p cbr -e 512 -c 0 -i 6 -a 0 -x {1.0 5.0 5 ------- null}
h -t 0.645714285714286 -s 1 -d 2 -p cbr -e 512 -c 0 -i 6 -a 0 -x {1.0 5.0 -1 ------- null}
r -t 0.648619428571428 -s 1 -d 2 -p cbr -e 512 -c 0 -i 5 -a 0 -x {1.0 5.0 4 ------- null}
+ -t 0.648619428571428 -s 2 -d 3 -p cbr -e 512 -c 0 -i 5 -a 0 -x {1.0 5.0 4 ------- null}
+ -t 0.651226666666667 -s 3 -d 6 -p tcp -e 40 -c 1 -i 0 -a 1 -x {0.0 4.0 0 ------- null}
- -t 0.651226666666667 -s 3 -d 6 -p tcp -e 40 -c 1 -i 0 -a 1 -x {0.0 4.0 0 ------- null}
h -t 0.651226666666667 -s 3 -d 6 -p tcp -e 40 -c 1 -i 0 -a 1 -x {0.0 4.0 -1 ------- null}
d -t 0.651230666666667 -s 5 -d 6 -p tcp -e 40 -c 1 -i 0 -a 1 -x {0.0 4.0 0 ------- null}
- -t 0.653008 -s 2 -d 3 -p cbr -e 512 -c 0 -i 4 -a 0 -x {1.0 5.0 3 ------- null}
h -t 0.653008 -s 2 -d 3 -p cbr -e 512 -c 0 -i 4 -a 0 -x {1.0 5.0 -1 ------- null}
+ -t 0.654857142857143 -s 1 -d 2 -p cbr -e 512 -c 0 -i 7 -a 0 -x {1.0 5.0 6 ------- null}
- -t 0.654857142857143 -s 1 -d 2 -p cbr -e 512 -c 0 -i 7 -a 0 -x {1.0 5.0 6 ------- null}
h -t 0.654857142857143 -s 1 -d 2 -p cbr -e 512 -c 0 -i 7 -a 0 -x {1.0 5.0 -1 ------- null}
r -t 0.657762285714286 -s 1 -d 2 -p cbr -e 512 -c 0 -i 6 -a 0 -x {1.0 5.0 5 ------- null}
+ -t 0.657762285714286 -s 2 -d 3 -p cbr -e 512 -c 0 -i 6 -a 0 -x {1.0 5.0 5 ------- null}
+ -t 0.664 -s 1 -d 2 -p cbr -e 512 -c 0 -i 8 -a 0 -x {1.0 5.0 7 ------- null}
- -t 0.664 -s 1 -d 2 -p cbr -e 512 -c 0 -i 8 -a 0 -x {1.0 5.0 7 ------- null}
h -t 0.664 -s 1 -d 2 -p cbr -e 512 -c 0 -i 8 -a 0 -x {1.0 5.0 -1 ------- null}
- -t 0.666661333333333 -s 2 -d 3 -p cbr -e 512 -c 0 -i 5 -a 0 -x {1.0 5.0 4 ------- null}
h -t 0.666661333333333 -s 2 -d 3 -p cbr -e 512 -c 0 -i 5 -a 0 -x {1.0 5.0 -1 ------- null}
r -t 0.666905142857143 -s 1 -d 2 -p cbr -e 512 -c 0 -i 7 -a 0 -x {1.0 5.0 6 ------- null}
+ -t 0.666905142857143 -s 2 -d 3 -p cbr -e 512 -c 0 -i 7 -a 0 -x {1.0 5.0 6 ------- null}
+ -t 0.673142857142857 -s 1 -d 2 -p cbr -e 512 -c 0 -i 9 -a 0 -x {1.0 5.0 8 ------- null}
- -t 0.673142857142857 -s 1 -d 2 -p cbr -e 512 -c 0 -i 9 -a 0 -x {1.0 5.0 8 ------- null}
h -t 0.673142857142857 -s 1 -d 2 -p cbr -e 512 -c 0 -i 9 -a 0 -x {1.0 5.0 -1 ------- null}
r -t 0.676048 -s 1 -d 2 -p cbr -e 512 -c 0 -i 8 -a 0 -x {1.0 5.0 7 ------- null}
+ -t 0.676048 -s 2 -d 3 -p cbr -e 512 -c 0 -i 8 -a 0 -x {1.0 5.0 7 ------- null}
- -t 0.680314666666666 -s 2 -d 3 -p cbr -e 512 -c 0 -i 6 -a 0 -x {1.0 5.0 5 ------- null}
h -t 0.680314666666666 -s 2 -d 3 -p cbr -e 512 -c 0 -i 6 -a 0 -x {1.0 5.0 -1 ------- null}
+ -t 0.682285714285714 -s 1 -d 2 -p cbr -e 512 -c 0 -i 10 -a 0 -x {1.0 5.0 9 ------- null}
- -t 0.682285714285714 -s 1 -d 2 -p cbr -e 512 -c 0 -i 10 -a 0 -x {1.0 5.0 9 ------- null}
h -t 0.682285714285714 -s 1 -d 2 -p cbr -e 512 -c 0 -i 10 -a 0 -x {1.0 5.0 -1 ------- null}
r -t 0.685190857142857 -s 1 -d 2 -p cbr -e 512 -c 0 -i 9 -a 0 -x {1.0 5.0 8 ------- null}
+ -t 0.685190857142857 -s 2 -d 3 -p cbr -e 512 -c 0 -i 9 -a 0 -x {1.0 5.0 8 ------- null}
r -t 0.691230666666667 -s 6 -d 4 -p tcp -e 40 -c 1 -i 0 -a 1 -x {0.0 4.0 0 ------- null}
h -t 0.691230666666667 -s 4 -d 6 -p ack -e 40 -c 1 -i 11 -a 1 -x {4.0 0.0 0 ------- null}
+ -t 0.691428571428571 -s 1 -d 2 -p cbr -e 512 -c 0 -i 12 -a 0 -x {1.0 5.0 10 ------- null}
- -t 0.691428571428571 -s 1 -d 2 -p cbr -e 512 -c 0 -i 12 -a 0 -x {1.0 5.0 10 ------- null}
h -t 0.691428571428571 -s 1 -d 2 -p cbr -e 512 -c 0 -i 12 -a 0 -x {1.0 5.0 -1 ------- null}
- -t 0.693968 -s 2 -d 3 -p cbr -e 512 -c 0 -i 7 -a 0 -x {1.0 5.0 6 ------- null}
h -t 0.693968 -s 2 -d 3 -p cbr -e 512 -c 0 -i 7 -a 0 -x {1.0 5.0 -1 ------- null}
r -t 0.694333714285714 -s 1 -d 2 -p cbr -e 512 -c 0 -i 10 -a 0 -x {1.0 5.0 9 ------- null}
+ -t 0.694333714285714 -s 2 -d 3 -p cbr -e 512 -c 0 -i 10 -a 0 -x {1.0 5.0 9 ------- null}
+ -t 0.700571428571428 -s 1 -d 2 -p cbr -e 512 -c 0 -i 13 -a 0 -x {1.0 5.0 11 ------- null}
- -t 0.700571428571428 -s 1 -d 2 -p cbr -e 512 -c 0 -i 13 -a 0 -x {1.0 5.0 11 ------- null}
h -t 0.700571428571428 -s 1 -d 2 -p cbr -e 512 -c 0 -i 13 -a 0 -x {1.0 5.0 -1 ------- null}
r -t 0.703476571428571 -s 1 -d 2 -p cbr -e 512 -c 0 -i 12 -a 0 -x {1.0 5.0 10 ------- null}
+ -t 0.703476571428571 -s 2 -d 3 -p cbr -e 512 -c 0 -i 12 -a 0 -x {1.0 5.0 10 ------- null}
- -t 0.707621333333333 -s 2 -d 3 -p cbr -e 512 -c 0 -i 8 -a 0 -x {1.0 5.0 7 ------- null}
h -t 0.707621333333333 -s 2 -d 3 -p cbr -e 512 -c 0 -i 8 -a 0 -x {1.0 5.0 -1 ------- null}
+ -t 0.709714285714285 -s 1 -d 2 -p cbr -e 512 -c 0 -i 14 -a 0 -x {1.0 5.0 12 ------- null}
- -t 0.709714285714285 -s 1 -d 2 -p cbr -e 512 -c 0 -i 14 -a 0 -x {1.0 5.0 12 ------- null}
h -t 0.709714285714285 -s 1 -d 2 -p cbr -e 512 -c 0 -i 14 -a 0 -x {1.0 5.0 -1 ------- null}
r -t 0.712619428571428 -s 1 -d 2 -p cbr -e 512 -c 0 -i 13 -a 0 -x {1.0 5.0 11 ------- null}
+ -t 0.712619428571428 -s 2 -d 3 -p cbr -e 512 -c 0 -i 13 -a 0 -x {1.0 5.0 11 ------- null}
+ -t 0.718857142857143 -s 1 -d 2 -p cbr -e 512 -c 0 -i 15 -a 0 -x {1.0 5.0 13 ------- null}
- -t 0.718857142857143 -s 1 -d 2 -p cbr -e 512 -c 0 -i 15 -a 0 -x {1.0 5.0 13 ------- null}
h -t 0.718857142857143 -s 1 -d 2 -p cbr -e 512 -c 0 -i 15 -a 0 -x {1.0 5.0 -1 ------- null}
- -t 0.721274666666666 -s 2 -d 3 -p cbr -e 512 -c 0 -i 9 -a 0 -x {1.0 5.0 8 ------- null}
h -t 0.721274666666666 -s 2 -d 3 -p cbr -e 512 -c 0 -i 9 -a 0 -x {1.0 5.0 -1 ------- null}
r -t 0.721762285714285 -s 1 -d 2 -p cbr -e 512 -c 0 -i 14 -a 0 -x {1.0 5.0 12 ------- null}
+ -t 0.721762285714285 -s 2 -d 3 -p cbr -e 512 -c 0 -i 14 -a 0 -x {1.0 5.0 12 ------- null}
r -t 0.725701333333333 -s 2 -d 3 -p cbr -e 512 -c 0 -i 1 -a 0 -x {1.0 5.0 0 ------- null}
h -t 0.725701333333333 -s 3 -d 6 -p cbr -e 512 -c 0 -i 1 -a 0 -x {1.0 5.0 0 ------- null}
+ -t 0.728 -s 1 -d 2 -p cbr -e 512 -c 0 -i 16 -a 0 -x {1.0 5.0 14 ------- null}
- -t 0.728 -s 1 -d 2 -p cbr -e 512 -c 0 -i 16 -a 0 -x {1.0 5.0 14 ------- null}
h -t 0.728 -s 1 -d 2 -p cbr -e 512 -c 0 -i 16 -a 0 -x {1.0 5.0 -1 ------- null}
r -t 0.730905142857142 -s 1 -d 2 -p cbr -e 512 -c 0 -i 15 -a 0 -x {1.0 5.0 13 ------- null}
+ -t 0.730905142857142 -s 2 -d 3 -p cbr -e 512 -c 0 -i 15 -a 0 -x {1.0 5.0 13 ------- null}
+ -t 0.731230666666667 -s 4 -d 6 -p ack -e 40 -c 1 -i 11 -a 1 -x {4.0 0.0 0 ------- null}
- -t 0.731230666666667 -s 4 -d 6 -p ack -e 40 -c 1 -i 11 -a 1 -x {4.0 0.0 0 ------- null}
h -t 0.731230666666667 -s 4 -d 6 -p ack -e 40 -c 1 -i 11 -a 1 -x {4.0 0.0 -1 ------- null}
d -t 0.731234666666667 -s 5 -d 6 -p ack -e 40 -c 1 -i 11 -a 1 -x {4.0 0.0 0 ------- null}
- -t 0.734928 -s 2 -d 3 -p cbr -e 512 -c 0 -i 10 -a 0 -x {1.0 5.0 9 ------- null}
h -t 0.734928 -s 2 -d 3 -p cbr -e 512 -c 0 -i 10 -a 0 -x {1.0 5.0 -1 ------- null}
+ -t 0.737142857142857 -s 1 -d 2 -p cbr -e 512 -c 0 -i 17 -a 0 -x {1.0 5.0 15 ------- null}
- -t 0.737142857142857 -s 1 -d 2 -p cbr -e 512 -c 0 -i 17 -a 0 -x {1.0 5.0 15 ------- null}
h -t 0.737142857142857 -s 1 -d 2 -p cbr -e 512 -c 0 -i 17 -a 0 -x {1.0 5.0 -1 ------- null}
r -t 0.739354666666667 -s 2 -d 3 -p cbr -e 512 -c 0 -i 2 -a 0 -x {1.0 5.0 1 ------- null}
h -t 0.739354666666667 -s 3 -d 6 -p cbr -e 512 -c 0 -i 2 -a 0 -x {1.0 5.0 1 ------- null}
r -t 0.740048 -s 1 -d 2 -p cbr -e 512 -c 0 -i 16 -a 0 -x {1.0 5.0 14 ------- null}
+ -t 0.740048 -s 2 -d 3 -p cbr -e 512 -c 0 -i 16 -a 0 -x {1.0 5.0 14 ------- null}
+ -t 0.746285714285714 -s 1 -d 2 -p cbr -e 512 -c 0 -i 18 -a 0 -x {1.0 5.0 16 ------- null}
- -t 0.746285714285714 -s 1 -d 2 -p cbr -e 512 -c 0 -i 18 -a 0 -x {1.0 5.0 16 ------- null}
h -t 0.746285714285714 -s 1 -d 2 -p cbr -e 512 -c 0 -i 18 -a 0 -x {1.0 5.0 -1 ------- null}
- -t 0.748581333333333 -s 2 -d 3 -p cbr -e 512 -c 0 -i 12 -a 0 -x {1.0 5.0 10 ------- null}
h -t 0.748581333333333 -s 2 -d 3 -p cbr -e 512 -c 0 -i 12 -a 0 -x {1.0 5.0 -1 ------- null}
r -t 0.749190857142857 -s 1 -d 2 -p cbr -e 512 -c 0 -i 17 -a 0 -x {1.0 5.0 15 ------- null}
+ -t 0.749190857142857 -s 2 -d 3 -p cbr -e 512 -c 0 -i 17 -a 0 -x {1.0 5.0 15 ------- null}
r -t 0.753008 -s 2 -d 3 -p cbr -e 512 -c 0 -i 3 -a 0 -x {1.0 5.0 2 ------- null}
h -t 0.753008 -s 3 -d 6 -p cbr -e 512 -c 0 -i 3 -a 0 -x {1.0 5.0 2 ------- null}
+ -t 0.755428571428571 -s 1 -d 2 -p cbr -e 512 -c 0 -i 19 -a 0 -x {1.0 5.0 17 ------- null}
- -t 0.755428571428571 -s 1 -d 2 -p cbr -e 512 -c 0 -i 19 -a 0 -x {1.0 5.0 17 ------- null}
h -t 0.755428571428571 -s 1 -d 2 -p cbr -e 512 -c 0 -i 19 -a 0 -x {1.0 5.0 -1 ------- null}
r -t 0.758333714285714 -s 1 -d 2 -p cbr -e 512 -c 0 -i 18 -a 0 -x {1.0 5.0 16 ------- null}
+ -t 0.758333714285714 -s 2 -d 3 -p cbr -e 512 -c 0 -i 18 -a 0 -x {1.0 5.0 16 ------- null}
- -t 0.762234666666666 -s 2 -d 3 -p cbr -e 512 -c 0 -i 13 -a 0 -x {1.0 5.0 11 ------- null}
h -t 0.762234666666666 -s 2 -d 3 -p cbr -e 512 -c 0 -i 13 -a 0 -x {1.0 5.0 -1 ------- null}
+ -t 0.764571428571428 -s 1 -d 2 -p cbr -e 512 -c 0 -i 20 -a 0 -x {1.0 5.0 18 ------- null}
- -t 0.764571428571428 -s 1 -d 2 -p cbr -e 512 -c 0 -i 20 -a 0 -x {1.0 5.0 18 ------- null}
h -t 0.764571428571428 -s 1 -d 2 -p cbr -e 512 -c 0 -i 20 -a 0 -x {1.0 5.0 -1 ------- null}
+ -t 0.765701333333333 -s 3 -d 6 -p cbr -e 512 -c 0 -i 1 -a 0 -x {1.0 5.0 0 ------- null}
- -t 0.765701333333333 -s 3 -d 6 -p cbr -e 512 -c 0 -i 1 -a 0 -x {1.0 5.0 0 ------- null}
h -t 0.765701333333333 -s 3 -d 6 -p cbr -e 512 -c 0 -i 1 -a 0 -x {1.0 5.0 -1 ------- null}
d -t 0.765705333333333 -s 4 -d 6 -p cbr -e 512 -c 0 -i 1 -a 0 -x {1.0 5.0 0 ------- null}
r -t 0.766661333333333 -s 2 -d 3 -p cbr -e 512 -c 0 -i 4 -a 0 -x {1.0 5.0 3 ------- null}
h -t 0.766661333333333 -s 3 -d 6 -p cbr -e 512 -c 0 -i 4 -a 0 -x {1.0 5.0 3 ------- null}
r -t 0.767476571428571 -s 1 -d 2 -p cbr -e 512 -c 0 -i 19 -a 0 -x {1.0 5.0 17 ------- null}
+ -t 0.767476571428571 -s 2 -d 3 -p cbr -e 512 -c 0 -i 19 -a 0 -x {1.0 5.0 17 ------- null}
r -t 0.771234666666667 -s 6 -d 3 -p ack -e 40 -c 1 -i 11 -a 1 -x {4.0 0.0 0 ------- null}
+ -t 0.771234666666667 -s 3 -d 2 -p ack -e 40 -c 1 -i 11 -a 1 -x {4.0 0.0 0 ------- null}
- -t 0.771234666666667 -s 3 -d 2 -p ack -e 40 -c 1 -i 11 -a 1 -x {4.0 0.0 0 ------- null}
h -t 0.771234666666667 -s 3 -d 2 -p ack -e 40 -c 1 -i 11 -a 1 -x {4.0 0.0 -1 ------- null}
+ -t 0.773714285714285 -s 1 -d 2 -p cbr -e 512 -c 0 -i 21 -a 0 -x {1.0 5.0 19 ------- null}
- -t 0.773714285714285 -s 1 -d 2 -p cbr -e 512 -c 0 -i 21 -a 0 -x {1.0 5.0 19 ------- null}
h -t 0.773714285714285 -s 1 -d 2 -p cbr -e 512 -c 0 -i 21 -a 0 -x {1.0 5.0 -1 ------- null}
- -t 0.775887999999999 -s 2 -d 3 -p cbr -e 512 -c 0 -i 14 -a 0 -x {1.0 5.0 12 ------- null}
h -t 0.775887999999999 -s 2 -d 3 -p cbr -e 512 -c 0 -i 14 -a 0 -x {1.0 5.0 -1 ------- null}
r -t 0.776619428571428 -s 1 -d 2 -p cbr -e 512 -c 0 -i 20 -a 0 -x {1.0 5.0 18 ------- null}
+ -t 0.776619428571428 -s 2 -d 3 -p cbr -e 512 -c 0 -i 20 -a 0 -x {1.0 5.0 18 ------- null}
+ -t 0.779354666666667 -s 3 -d 6 -p cbr -e 512 -c 0 -i 2 -a 0 -x {1.0 5.0 1 ------- null}
- -t 0.779354666666667 -s 3 -d 6 -p cbr -e 512 -c 0 -i 2 -a 0 -x {1.0 5.0 1 ------- null}
h -t 0.779354666666667 -s 3 -d 6 -p cbr -e 512 -c 0 -i 2 -a 0 -x {1.0 5.0 -1 ------- null}
d -t 0.779358666666667 -s 4 -d 6 -p cbr -e 512 -c 0 -i 2 -a 0 -x {1.0 5.0 1 ------- null}
r -t 0.780314666666666 -s 2 -d 3 -p cbr -e 512 -c 0 -i 5 -a 0 -x {1.0 5.0 4 ------- null}
h -t 0.780314666666666 -s 3 -d 6 -p cbr -e 512 -c 0 -i 5 -a 0 -x {1.0 5.0 4 ------- null}
+ -t 0.782857142857142 -s 1 -d 2 -p cbr -e 512 -c 0 -i 22 -a 0 -x {1.0 5.0 20 ------- null}
- -t 0.782857142857142 -s 1 -d 2 -p cbr -e 512 -c 0 -i 22 -a 0 -x {1.0 5.0 20 ------- null}
h -t 0.782857142857142 -s 1 -d 2 -p cbr -e 512 -c 0 -i 22 -a 0 -x {1.0 5.0 -1 ------- null}
r -t 0.785762285714285 -s 1 -d 2 -p cbr -e 512 -c 0 -i 21 -a 0 -x {1.0 5.0 19 ------- null}
+ -t 0.785762285714285 -s 2 -d 3 -p cbr -e 512 -c 0 -i 21 -a 0 -x {1.0 5.0 19 ------- null}
- -t 0.789541333333333 -s 2 -d 3 -p cbr -e 512 -c 0 -i 15 -a 0 -x {1.0 5.0 13 ------- null}
h -t 0.789541333333333 -s 2 -d 3 -p cbr -e 512 -c 0 -i 15 -a 0 -x {1.0 5.0 -1 ------- null}
+ -t 0.791999999999999 -s 1 -d 2 -p cbr -e 512 -c 0 -i 23 -a 0 -x {1.0 5.0 21 ------- null}
- -t 0.791999999999999 -s 1 -d 2 -p cbr -e 512 -c 0 -i 23 -a 0 -x {1.0 5.0 21 ------- null}
h -t 0.791999999999999 -s 1 -d 2 -p cbr -e 512 -c 0 -i 23 -a 0 -x {1.0 5.0 -1 ------- null}
+ -t 0.793008 -s 3 -d 6 -p cbr -e 512 -c 0 -i 3 -a 0 -x {1.0 5.0 2 ------- null}
- -t 0.793008 -s 3 -d 6 -p cbr -e 512 -c 0 -i 3 -a 0 -x {1.0 5.0 2 ------- null}
h -t 0.793008 -s 3 -d 6 -p cbr -e 512 -c 0 -i 3 -a 0 -x {1.0 5.0 -1 ------- null}
d -t 0.793012 -s 4 -d 6 -p cbr -e 512 -c 0 -i 3 -a 0 -x {1.0 5.0 2 ------- null}
r -t 0.793968 -s 2 -d 3 -p cbr -e 512 -c 0 -i 6 -a 0 -x {1.0 5.0 5 ------- null}
h -t 0.793968 -s 3 -d 6 -p cbr -e 512 -c 0 -i 6 -a 0 -x {1.0 5.0 5 ------- null}
r -t 0.794905142857142 -s 1 -d 2 -p cbr -e 512 -c 0 -i 22 -a 0 -x {1.0 5.0 20 ------- null}
+ -t 0.794905142857142 -s 2 -d 3 -p cbr -e 512 -c 0 -i 22 -a 0 -x {1.0 5.0 20 ------- null}
+ -t 0.801142857142857 -s 1 -d 2 -p cbr -e 512 -c 0 -i 24 -a 0 -x {1.0 5.0 22 ------- null}
- -t 0.801142857142857 -s 1 -d 2 -p cbr -e 512 -c 0 -i 24 -a 0 -x {1.0 5.0 22 ------- null}
h -t 0.801142857142857 -s 1 -d 2 -p cbr -e 512 -c 0 -i 24 -a 0 -x {1.0 5.0 -1 ------- null}
- -t 0.803194666666666 -s 2 -d 3 -p cbr -e 512 -c 0 -i 16 -a 0 -x {1.0 5.0 14 ------- null}
h -t 0.803194666666666 -s 2 -d 3 -p cbr -e 512 -c 0 -i 16 -a 0 -x {1.0 5.0 -1 ------- null}
r -t 0.804047999999999 -s 1 -d 2 -p cbr -e 512 -c 0 -i 23 -a 0 -x {1.0 5.0 21 ------- null}
+ -t 0.804047999999999 -s 2 -d 3 -p cbr -e 512 -c 0 -i 23 -a 0 -x {1.0 5.0 21 ------- null}
r -t 0.805705333333333 -s 6 -d 5 -p cbr -e 512 -c 0 -i 1 -a 0 -x {1.0 5.0 0 ------- null}
+ -t 0.806661333333333 -s 3 -d 6 -p cbr -e 512 -c 0 -i 4 -a 0 -x {1.0 5.0 3 ------- null}
- -t 0.806661333333333 -s 3 -d 6 -p cbr -e 512 -c 0 -i 4 -a 0 -x {1.0 5.0 3 ------- null}
h -t 0.806661333333333 -s 3 -d 6 -p cbr -e 512 -c 0 -i 4 -a 0 -x {1.0 5.0 -1 ------- null}
d -t 0.806665333333333 -s 4 -d 6 -p cbr -e 512 -c 0 -i 4 -a 0 -x {1.0 5.0 3 ------- null}
r -t 0.807621333333333 -s 2 -d 3 -p cbr -e 512 -c 0 -i 7 -a 0 -x {1.0 5.0 6 ------- null}
h -t 0.807621333333333 -s 3 -d 6 -p cbr -e 512 -c 0 -i 7 -a 0 -x {1.0 5.0 6 ------- null}
+ -t 0.810285714285714 -s 1 -d 2 -p cbr -e 512 -c 0 -i 25 -a 0 -x {1.0 5.0 23 ------- null}
- -t 0.810285714285714 -s 1 -d 2 -p cbr -e 512 -c 0 -i 25 -a 0 -x {1.0 5.0 23 ------- null}
h -t 0.810285714285714 -s 1 -d 2 -p cbr -e 512 -c 0 -i 25 -a 0 -x {1.0 5.0 -1 ------- null}
r -t 0.813190857142857 -s 1 -d 2 -p cbr -e 512 -c 0 -i 24 -a 0 -x {1.0 5.0 22 ------- null}
+ -t 0.813190857142857 -s 2 -d 3 -p cbr -e 512 -c 0 -i 24 -a 0 -x {1.0 5.0 22 ------- null}
- -t 0.816847999999999 -s 2 -d 3 -p cbr -e 512 -c 0 -i 17 -a 0 -x {1.0 5.0 15 ------- null}
h -t 0.816847999999999 -s 2 -d 3 -p cbr -e 512 -c 0 -i 17 -a 0 -x {1.0 5.0 -1 ------- null}
r -t 0.819358666666667 -s 6 -d 5 -p cbr -e 512 -c 0 -i 2 -a 0 -x {1.0 5.0 1 ------- null}
+ -t 0.819428571428571 -s 1 -d 2 -p cbr -e 512 -c 0 -i 26 -a 0 -x {1.0 5.0 24 ------- null}
- -t 0.819428571428571 -s 1 -d 2 -p cbr -e 512 -c 0 -i 26 -a 0 -x {1.0 5.0 24 ------- null}
h -t 0.819428571428571 -s 1 -d 2 -p cbr -e 512 -c 0 -i 26 -a 0 -x {1.0 5.0 -1 ------- null}
+ -t 0.820314666666667 -s 3 -d 6 -p cbr -e 512 -c 0 -i 5 -a 0 -x {1.0 5.0 4 ------- null}
- -t 0.820314666666667 -s 3 -d 6 -p cbr -e 512 -c 0 -i 5 -a 0 -x {1.0 5.0 4 ------- null}
h -t 0.820314666666667 -s 3 -d 6 -p cbr -e 512 -c 0 -i 5 -a 0 -x {1.0 5.0 -1 ------- null}
d -t 0.820318666666667 -s 4 -d 6 -p cbr -e 512 -c 0 -i 5 -a 0 -x {1.0 5.0 4 ------- null}
r -t 0.821274666666666 -s 2 -d 3 -p cbr -e 512 -c 0 -i 8 -a 0 -x {1.0 5.0 7 ------- null}
h -t 0.821274666666666 -s 3 -d 6 -p cbr -e 512 -c 0 -i 8 -a 0 -x {1.0 5.0 7 ------- null}
r -t 0.822333714285714 -s 1 -d 2 -p cbr -e 512 -c 0 -i 25 -a 0 -x {1.0 5.0 23 ------- null}
+ -t 0.822333714285714 -s 2 -d 3 -p cbr -e 512 -c 0 -i 25 -a 0 -x {1.0 5.0 23 ------- null}
+ -t 0.828571428571428 -s 1 -d 2 -p cbr -e 512 -c 0 -i 27 -a 0 -x {1.0 5.0 25 ------- null}
- -t 0.828571428571428 -s 1 -d 2 -p cbr -e 512 -c 0 -i 27 -a 0 -x {1.0 5.0 25 ------- null}
h -t 0.828571428571428 -s 1 -d 2 -p cbr -e 512 -c 0 -i 27 -a 0 -x {1.0 5.0 -1 ------- null}
- -t 0.830501333333333 -s 2 -d 3 -p cbr -e 512 -c 0 -i 18 -a 0 -x {1.0 5.0 16 ------- null}
h -t 0.830501333333333 -s 2 -d 3 -p cbr -e 512 -c 0 -i 18 -a 0 -x {1.0 5.0 -1 ------- null}
r -t 0.831476571428571 -s 1 -d 2 -p cbr -e 512 -c 0 -i 26 -a 0 -x {1.0 5.0 24 ------- null}
+ -t 0.831476571428571 -s 2 -d 3 -p cbr -e 512 -c 0 -i 26 -a 0 -x {1.0 5.0 24 ------- null}
r -t 0.833012 -s 6 -d 5 -p cbr -e 512 -c 0 -i 3 -a 0 -x {1.0 5.0 2 ------- null}
+ -t 0.833968 -s 3 -d 6 -p cbr -e 512 -c 0 -i 6 -a 0 -x {1.0 5.0 5 ------- null}
- -t 0.833968 -s 3 -d 6 -p cbr -e 512 -c 0 -i 6 -a 0 -x {1.0 5.0 5 ------- null}
h -t 0.833968 -s 3 -d 6 -p cbr -e 512 -c 0 -i 6 -a 0 -x {1.0 5.0 -1 ------- null}
d -t 0.833972 -s 4 -d 6 -p cbr -e 512 -c 0 -i 6 -a 0 -x {1.0 5.0 5 ------- null}
r -t 0.834928 -s 2 -d 3 -p cbr -e 512 -c 0 -i 9 -a 0 -x {1.0 5.0 8 ------- null}
h -t 0.834928 -s 3 -d 6 -p cbr -e 512 -c 0 -i 9 -a 0 -x {1.0 5.0 8 ------- null}
+ -t 0.837714285714285 -s 1 -d 2 -p cbr -e 512 -c 0 -i 28 -a 0 -x {1.0 5.0 26 ------- null}
- -t 0.837714285714285 -s 1 -d 2 -p cbr -e 512 -c 0 -i 28 -a 0 -x {1.0 5.0 26 ------- null}
h -t 0.837714285714285 -s 1 -d 2 -p cbr -e 512 -c 0 -i 28 -a 0 -x {1.0 5.0 -1 ------- null}
r -t 0.840619428571428 -s 1 -d 2 -p cbr -e 512 -c 0 -i 27 -a 0 -x {1.0 5.0 25 ------- null}
+ -t 0.840619428571428 -s 2 -d 3 -p cbr -e 512 -c 0 -i 27 -a 0 -x {1.0 5.0 25 ------- null}
- -t 0.844154666666666 -s 2 -d 3 -p cbr -e 512 -c 0 -i 19 -a 0 -x {1.0 5.0 17 ------- null}
h -t 0.844154666666666 -s 2 -d 3 -p cbr -e 512 -c 0 -i 19 -a 0 -x {1.0 5.0 -1 ------- null}
r -t 0.846665333333333 -s 6 -d 5 -p cbr -e 512 -c 0 -i 4 -a 0 -x {1.0 5.0 3 ------- null}
+ -t 0.846857142857142 -s 1 -d 2 -p cbr -e 512 -c 0 -i 29 -a 0 -x {1.0 5.0 27 ------- null}
- -t 0.846857142857142 -s 1 -d 2 -p cbr -e 512 -c 0 -i 29 -a 0 -x {1.0 5.0 27 ------- null}
h -t 0.846857142857142 -s 1 -d 2 -p cbr -e 512 -c 0 -i 29 -a 0 -x {1.0 5.0 -1 ------- null}
+ -t 0.847621333333333 -s 3 -d 6 -p cbr -e 512 -c 0 -i 7 -a 0 -x {1.0 5.0 6 ------- null}
- -t 0.847621333333333 -s 3 -d 6 -p cbr -e 512 -c 0 -i 7 -a 0 -x {1.0 5.0 6 ------- null}
h -t 0.847621333333333 -s 3 -d 6 -p cbr -e 512 -c 0 -i 7 -a 0 -x {1.0 5.0 -1 ------- null}
d -t 0.847625333333333 -s 4 -d 6 -p cbr -e 512 -c 0 -i 7 -a 0 -x {1.0 5.0 6 ------- null}
r -t 0.848581333333333 -s 2 -d 3 -p cbr -e 512 -c 0 -i 10 -a 0 -x {1.0 5.0 9 ------- null}
h -t 0.848581333333333 -s 3 -d 6 -p cbr -e 512 -c 0 -i 10 -a 0 -x {1.0 5.0 9 ------- null}
r -t 0.849762285714285 -s 1 -d 2 -p cbr -e 512 -c 0 -i 28 -a 0 -x {1.0 5.0 26 ------- null}
+ -t 0.849762285714285 -s 2 -d 3 -p cbr -e 512 -c 0 -i 28 -a 0 -x {1.0 5.0 26 ------- null}
+ -t 0.855999999999999 -s 1 -d 2 -p cbr -e 512 -c 0 -i 30 -a 0 -x {1.0 5.0 28 ------- null}
- -t 0.855999999999999 -s 1 -d 2 -p cbr -e 512 -c 0 -i 30 -a 0 -x {1.0 5.0 28 ------- null}
h -t 0.855999999999999 -s 1 -d 2 -p cbr -e 512 -c 0 -i 30 -a 0 -x {1.0 5.0 -1 ------- null}
- -t 0.857807999999999 -s 2 -d 3 -p cbr -e 512 -c 0 -i 20 -a 0 -x {1.0 5.0 18 ------- null}
h -t 0.857807999999999 -s 2 -d 3 -p cbr -e 512 -c 0 -i 20 -a 0 -x {1.0 5.0 -1 ------- null}
r -t 0.858905142857142 -s 1 -d 2 -p cbr -e 512 -c 0 -i 29 -a 0 -x {1.0 5.0 27 ------- null}
+ -t 0.858905142857142 -s 2 -d 3 -p cbr -e 512 -c 0 -i 29 -a 0 -x {1.0 5.0 27 ------- null}
r -t 0.860318666666667 -s 6 -d 5 -p cbr -e 512 -c 0 -i 5 -a 0 -x {1.0 5.0 4 ------- null}
+ -t 0.861274666666666 -s 3 -d 6 -p cbr -e 512 -c 0 -i 8 -a 0 -x {1.0 5.0 7 ------- null}
- -t 0.861274666666666 -s 3 -d 6 -p cbr -e 512 -c 0 -i 8 -a 0 -x {1.0 5.0 7 ------- null}
h -t 0.861274666666666 -s 3 -d 6 -p cbr -e 512 -c 0 -i 8 -a 0 -x {1.0 5.0 -1 ------- null}
d -t 0.861278666666666 -s 4 -d 6 -p cbr -e 512 -c 0 -i 8 -a 0 -x {1.0 5.0 7 ------- null}
r -t 0.862234666666666 -s 2 -d 3 -p cbr -e 512 -c 0 -i 12 -a 0 -x {1.0 5.0 10 ------- null}
h -t 0.862234666666666 -s 3 -d 6 -p cbr -e 512 -c 0 -i 12 -a 0 -x {1.0 5.0 10 ------- null}
+ -t 0.865142857142856 -s 1 -d 2 -p cbr -e 512 -c 0 -i 31 -a 0 -x {1.0 5.0 29 ------- null}
- -t 0.865142857142856 -s 1 -d 2 -p cbr -e 512 -c 0 -i 31 -a 0 -x {1.0 5.0 29 ------- null}
h -t 0.865142857142856 -s 1 -d 2 -p cbr -e 512 -c 0 -i 31 -a 0 -x {1.0 5.0 -1 ------- null}
r -t 0.868047999999999 -s 1 -d 2 -p cbr -e 512 -c 0 -i 30 -a 0 -x {1.0 5.0 28 ------- null}
+ -t 0.868047999999999 -s 2 -d 3 -p cbr -e 512 -c 0 -i 30 -a 0 -x {1.0 5.0 28 ------- null}
- -t 0.871461333333333 -s 2 -d 3 -p cbr -e 512 -c 0 -i 21 -a 0 -x {1.0 5.0 19 ------- null}
h -t 0.871461333333333 -s 2 -d 3 -p cbr -e 512 -c 0 -i 21 -a 0 -x {1.0 5.0 -1 ------- null}
r -t 0.872301333333333 -s 3 -d 2 -p ack -e 40 -c 1 -i 11 -a 1 -x {4.0 0.0 0 ------- null}
+ -t 0.872301333333333 -s 2 -d 0 -p ack -e 40 -c 1 -i 11 -a 1 -x {4.0 0.0 0 ------- null}
- -t 0.872301333333333 -s 2 -d 0 -p ack -e 40 -c 1 -i 11 -a 1 -x {4.0 0.0 0 ------- null}
h -t 0.872301333333333 -s 2 -d 0 -p ack -e 40 -c 1 -i 11 -a 1 -x {4.0 0.0 -1 ------- null}
r -t 0.873972 -s 6 -d 5 -p cbr -e 512 -c 0 -i 6 -a 0 -x {1.0 5.0 5 ------- null}
+ -t 0.874285714285714 -s 1 -d 2 -p cbr -e 512 -c 0 -i 32 -a 0 -x {1.0 5.0 30 ------- null}
- -t 0.874285714285714 -s 1 -d 2 -p cbr -e 512 -c 0 -i 32 -a 0 -x {1.0 5.0 30 ------- null}
h -t 0.874285714285714 -s 1 -d 2 -p cbr -e 512 -c 0 -i 32 -a 0 -x {1.0 5.0 -1 ------- null}
+ -t 0.874928 -s 3 -d 6 -p cbr -e 512 -c 0 -i 9 -a 0 -x {1.0 5.0 8 ------- null}
- -t 0.874928 -s 3 -d 6 -p cbr -e 512 -c 0 -i 9 -a 0 -x {1.0 5.0 8 ------- null}
h -t 0.874928 -s 3 -d 6 -p cbr -e 512 -c 0 -i 9 -a 0 -x {1.0 5.0 -1 ------- null}
d -t 0.874932 -s 4 -d 6 -p cbr -e 512 -c 0 -i 9 -a 0 -x {1.0 5.0 8 ------- null}
r -t 0.875888 -s 2 -d 3 -p cbr -e 512 -c 0 -i 13 -a 0 -x {1.0 5.0 11 ------- null}
h -t 0.875888 -s 3 -d 6 -p cbr -e 512 -c 0 -i 13 -a 0 -x {1.0 5.0 11 ------- null}
r -t 0.877190857142856 -s 1 -d 2 -p cbr -e 512 -c 0 -i 31 -a 0 -x {1.0 5.0 29 ------- null}
+ -t 0.877190857142856 -s 2 -d 3 -p cbr -e 512 -c 0 -i 31 -a 0 -x {1.0 5.0 29 ------- null}
r -t 0.882461333333333 -s 2 -d 0 -p ack -e 40 -c 1 -i 11 -a 1 -x {4.0 0.0 0 ------- null}
+ -t 0.882461333333333 -s 0 -d 2 -p tcp -e 296 -c 1 -i 33 -a 1 -x {0.0 4.0 1 ------- null}
- -t 0.882461333333333 -s 0 -d 2 -p tcp -e 296 -c 1 -i 33 -a 1 -x {0.0 4.0 1 ------- null}
h -t 0.882461333333333 -s 0 -d 2 -p tcp -e 296 -c 1 -i 33 -a 1 -x {0.0 4.0 -1 ------- null}
+ -t 0.882461333333333 -s 0 -d 2 -p tcp -e 296 -c 1 -i 34 -a 1 -x {0.0 4.0 2 ------- null}
+ -t 0.883428571428571 -s 1 -d 2 -p cbr -e 512 -c 0 -i 35 -a 0 -x {1.0 5.0 31 ------- null}
- -t 0.883428571428571 -s 1 -d 2 -p cbr -e 512 -c 0 -i 35 -a 0 -x {1.0 5.0 31 ------- null}
h -t 0.883428571428571 -s 1 -d 2 -p cbr -e 512 -c 0 -i 35 -a 0 -x {1.0 5.0 -1 ------- null}
- -t 0.883645333333333 -s 0 -d 2 -p tcp -e 296 -c 1 -i 34 -a 1 -x {0.0 4.0 2 ------- null}
h -t 0.883645333333333 -s 0 -d 2 -p tcp -e 296 -c 1 -i 34 -a 1 -x {0.0 4.0 -1 ------- null}
- -t 0.885114666666666 -s 2 -d 3 -p cbr -e 512 -c 0 -i 22 -a 0 -x {1.0 5.0 20 ------- null}
h -t 0.885114666666666 -s 2 -d 3 -p cbr -e 512 -c 0 -i 22 -a 0 -x {1.0 5.0 -1 ------- null}
r -t 0.886333714285714 -s 1 -d 2 -p cbr -e 512 -c 0 -i 32 -a 0 -x {1.0 5.0 30 ------- null}
+ -t 0.886333714285714 -s 2 -d 3 -p cbr -e 512 -c 0 -i 32 -a 0 -x {1.0 5.0 30 ------- null}
r -t 0.887625333333333 -s 6 -d 5 -p cbr -e 512 -c 0 -i 7 -a 0 -x {1.0 5.0 6 ------- null}
+ -t 0.888581333333333 -s 3 -d 6 -p cbr -e 512 -c 0 -i 10 -a 0 -x {1.0 5.0 9 ------- null}
- -t 0.888581333333333 -s 3 -d 6 -p cbr -e 512 -c 0 -i 10 -a 0 -x {1.0 5.0 9 ------- null}
h -t 0.888581333333333 -s 3 -d 6 -p cbr -e 512 -c 0 -i 10 -a 0 -x {1.0 5.0 -1 ------- null}
d -t 0.888585333333333 -s 4 -d 6 -p cbr -e 512 -c 0 -i 10 -a 0 -x {1.0 5.0 9 ------- null}
r -t 0.889541333333333 -s 2 -d 3 -p cbr -e 512 -c 0 -i 14 -a 0 -x {1.0 5.0 12 ------- null}
h -t 0.889541333333333 -s 3 -d 6 -p cbr -e 512 -c 0 -i 14 -a 0 -x {1.0 5.0 12 ------- null}
+ -t 0.892571428571428 -s 1 -d 2 -p cbr -e 512 -c 0 -i 36 -a 0 -x {1.0 5.0 32 ------- null}
- -t 0.892571428571428 -s 1 -d 2 -p cbr -e 512 -c 0 -i 36 -a 0 -x {1.0 5.0 32 ------- null}
h -t 0.892571428571428 -s 1 -d 2 -p cbr -e 512 -c 0 -i 36 -a 0 -x {1.0 5.0 -1 ------- null}
r -t 0.893645333333333 -s 0 -d 2 -p tcp -e 296 -c 1 -i 33 -a 1 -x {0.0 4.0 1 ------- null}
+ -t 0.893645333333333 -s 2 -d 3 -p tcp -e 296 -c 1 -i 33 -a 1 -x {0.0 4.0 1 ------- null}
r -t 0.894829333333333 -s 0 -d 2 -p tcp -e 296 -c 1 -i 34 -a 1 -x {0.0 4.0 2 ------- null}
+ -t 0.894829333333333 -s 2 -d 3 -p tcp -e 296 -c 1 -i 34 -a 1 -x {0.0 4.0 2 ------- null}
r -t 0.895476571428571 -s 1 -d 2 -p cbr -e 512 -c 0 -i 35 -a 0 -x {1.0 5.0 31 ------- null}
+ -t 0.895476571428571 -s 2 -d 3 -p cbr -e 512 -c 0 -i 35 -a 0 -x {1.0 5.0 31 ------- null}
- -t 0.898767999999999 -s 2 -d 3 -p cbr -e 512 -c 0 -i 23 -a 0 -x {1.0 5.0 21 ------- null}
h -t 0.898767999999999 -s 2 -d 3 -p cbr -e 512 -c 0 -i 23 -a 0 -x {1.0 5.0 -1 ------- null}
r -t 0.901278666666666 -s 6 -d 5 -p cbr -e 512 -c 0 -i 8 -a 0 -x {1.0 5.0 7 ------- null}
+ -t 0.901714285714285 -s 1 -d 2 -p cbr -e 512 -c 0 -i 37 -a 0 -x {1.0 5.0 33 ------- null}
- -t 0.901714285714285 -s 1 -d 2 -p cbr -e 512 -c 0 -i 37 -a 0 -x {1.0 5.0 33 ------- null}
h -t 0.901714285714285 -s 1 -d 2 -p cbr -e 512 -c 0 -i 37 -a 0 -x {1.0 5.0 -1 ------- null}
+ -t 0.902234666666666 -s 3 -d 6 -p cbr -e 512 -c 0 -i 12 -a 0 -x {1.0 5.0 10 ------- null}
- -t 0.902234666666666 -s 3 -d 6 -p cbr -e 512 -c 0 -i 12 -a 0 -x {1.0 5.0 10 ------- null}
h -t 0.902234666666666 -s 3 -d 6 -p cbr -e 512 -c 0 -i 12 -a 0 -x {1.0 5.0 -1 ------- null}