+ 0.5 0 2 tcp 40 ------- 1 0.0 4.0 0 0
- 0.5 0 2 tcp 40 ------- 1 0.0 4.0 0 0
r 0.51016 0 2 tcp 40 ------- 1 0.0 4.0 0 0
+ 0.51016 2 3 tcp 40 ------- 1 0.0 4.0 0 0
- 0.51016 2 3 tcp 40 ------- 1 0.0 4.0 0 0
+ 0.6 1 2 cbr 512 ------- 0 1.0 5.0 0 1
- 0.6 1 2 cbr 512 ------- 0 1.0 5.0 0 1
+ 0.609143 1 2 cbr 512 ------- 0 1.0 5.0 1 2
- 0.609143 1 2 cbr 512 ------- 0 1.0 5.0 1 2
r 0.611227 2 3 tcp 40 ------- 1 0.0 4.0 0 0
h 0.611227 3 6 tcp 40 ------- 1 0.0 4.0 0 0
r 0.612048 1 2 cbr 512 ------- 0 1.0 5.0 0 1
+ 0.612048 2 3 cbr 512 ------- 0 1.0 5.0 0 1
- 0.612048 2 3 cbr 512 ------- 0 1.0 5.0 0 1
+ 0.618286 1 2 cbr 512 ------- 0 1.0 5.0 2 3
- 0.618286 1 2 cbr 512 ------- 0 1.0 5.0 2 3
r 0.621191 1 2 cbr 512 ------- 0 1.0 5.0 1 2
+ 0.621191 2 3 cbr 512 ------- 0 1.0 5.0 1 2
- 0.625701 2 3 cbr 512 ------- 0 1.0 5.0 1 2
+ 0.627429 1 2 cbr 512 ------- 0 1.0 5.0 3 4
- 0.627429 1 2 cbr 512 ------- 0 1.0 5.0 3 4
r 0.630334 1 2 cbr 512 ------- 0 1.0 5.0 2 3
+ 0.630334 2 3 cbr 512 ------- 0 1.0 5.0 2 3
+ 0.636571 1 2 cbr 512 ------- 0 1.0 5.0 4 5
- 0.636571 1 2 cbr 512 ------- 0 1.0 5.0 4 5
- 0.639355 2 3 cbr 512 ------- 0 1.0 5.0 2 3
r 0.639477 1 2 cbr 512 ------- 0 1.0 5.0 3 4
+ 0.639477 2 3 cbr 512 ------- 0 1.0 5.0 3 4
+ 0.645714 1 2 cbr 512 ------- 0 1.0 5.0 5 6
- 0.645714 1 2 cbr 512 ------- 0 1.0 5.0 5 6
r 0.648619 1 2 cbr 512 ------- 0 1.0 5.0 4 5
+ 0.648619 2 3 cbr 512 ------- 0 1.0 5.0 4 5
+ 0.651227 3 6 tcp 40 ------- 1 0.0 4.0 0 0
- 0.651227 3 6 tcp 40 ------- 1 0.0 4.0 0 0
d 0.651231 5 6 tcp 40 ------- 1 0.0 4.0 0 0
- 0.653008 2 3 cbr 512 ------- 0 1.0 5.0 3 4
+ 0.654857 1 2 cbr 512 ------- 0 1.0 5.0 6 7
- 0.654857 1 2 cbr 512 ------- 0 1.0 5.0 6 7
r 0.657762 1 2 cbr 512 ------- 0 1.0 5.0 5 6
+ 0.657762 2 3 cbr 512 ------- 0 1.0 5.0 5 6
+ 0.664 1 2 cbr 512 ------- 0 1.0 5.0 7 8
- 0.664 1 2 cbr 512 ------- 0 1.0 5.0 7 8
- 0.666661 2 3 cbr 512 ------- 0 1.0 5.0 4 5
r 0.666905 1 2 cbr 512 ------- 0 1.0 5.0 6 7
+ 0.666905 2 3 cbr 512 ------- 0 1.0 5.0 6 7
+ 0.673143 1 2 cbr 512 ------- 0 1.0 5.0 8 9
- 0.673143 1 2 cbr 512 ------- 0 1.0 5.0 8 9
r 0.676048 1 2 cbr 512 ------- 0 1.0 5.0 7 8
+ 0.676048 2 3 cbr 512 ------- 0 1.0 5.0 7 8
- 0.680315 2 3 cbr 512 ------- 0 1.0 5.0 5 6
+ 0.682286 1 2 cbr 512 ------- 0 1.0 5.0 9 10
- 0.682286 1 2 cbr 512 ------- 0 1.0 5.0 9 10
r 0.685191 1 2 cbr 512 ------- 0 1.0 5.0 8 9
+ 0.685191 2 3 cbr 512 ------- 0 1.0 5.0 8 9
r 0.691231 6 4 tcp 40 ------- 1 0.0 4.0 0 0
h 0.691231 4 6 ack 40 ------- 1 4.0 0.0 0 11
+ 0.691429 1 2 cbr 512 ------- 0 1.0 5.0 10 12
- 0.691429 1 2 cbr 512 ------- 0 1.0 5.0 10 12
- 0.693968 2 3 cbr 512 ------- 0 1.0 5.0 6 7
r 0.694334 1 2 cbr 512 ------- 0 1.0 5.0 9 10
+ 0.694334 2 3 cbr 512 ------- 0 1.0 5.0 9 10
+ 0.700571 1 2 cbr 512 ------- 0 1.0 5.0 11 13
- 0.700571 1 2 cbr 512 ------- 0 1.0 5.0 11 13
r 0.703477 1 2 cbr 512 ------- 0 1.0 5.0 10 12
+ 0.703477 2 3 cbr 512 ------- 0 1.0 5.0 10 12
- 0.707621 2 3 cbr 512 ------- 0 1.0 5.0 7 8
+ 0.709714 1 2 cbr 512 ------- 0 1.0 5.0 12 14
- 0.709714 1 2 cbr 512 ------- 0 1.0 5.0 12 14
r 0.712619 1 2 cbr 512 ------- 0 1.0 5.0 11 13
+ 0.712619 2 3 cbr 512 ------- 0 1.0 5.0 11 13
+ 0.718857 1 2 cbr 512 ------- 0 1.0 5.0 13 15
- 0.718857 1 2 cbr 512 ------- 0 1.0 5.0 13 15
- 0.721275 2 3 cbr 512 ------- 0 1.0 5.0 8 9
r 0.721762 1 2 cbr 512 ------- 0 1.0 5.0 12 14
+ 0.721762 2 3 cbr 512 ------- 0 1.0 5.0 12 14
r 0.725701 2 3 cbr 512 ------- 0 1.0 5.0 0 1
h 0.725701 3 6 cbr 512 ------- 0 1.0 5.0 0 1
+ 0.728 1 2 cbr 512 ------- 0 1.0 5.0 14 16
- 0.728 1 2 cbr 512 ------- 0 1.0 5.0 14 16
r 0.730905 1 2 cbr 512 ------- 0 1.0 5.0 13 15
+ 0.730905 2 3 cbr 512 ------- 0 1.0 5.0 13 15
+ 0.731231 4 6 ack 40 ------- 1 4.0 0.0 0 11
- 0.731231 4 6 ack 40 ------- 1 4.0 0.0 0 11
d 0.731235 5 6 ack 40 ------- 1 4.0 0.0 0 11
- 0.734928 2 3 cbr 512 ------- 0 1.0 5.0 9 10
+ 0.737143 1 2 cbr 512 ------- 0 1.0 5.0 15 17
- 0.737143 1 2 cbr 512 ------- 0 1.0 5.0 15 17
r 0.739355 2 3 cbr 512 ------- 0 1.0 5.0 1 2
h 0.739355 3 6 cbr 512 ------- 0 1.0 5.0 1 2
r 0.740048 1 2 cbr 512 ------- 0 1.0 5.0 14 16
+ 0.740048 2 3 cbr 512 ------- 0 1.0 5.0 14 16
+ 0.746286 1 2 cbr 512 ------- 0 1.0 5.0 16 18
- 0.746286 1 2 cbr 512 ------- 0 1.0 5.0 16 18
- 0.748581 2 3 cbr 512 ------- 0 1.0 5.0 10 12
r 0.749191 1 2 cbr 512 ------- 0 1.0 5.0 15 17
+ 0.749191 2 3 cbr 512 ------- 0 1.0 5.0 15 17
r 0.753008 2 3 cbr 512 ------- 0 1.0 5.0 2 3
h 0.753008 3 6 cbr 512 ------- 0 1.0 5.0 2 3
+ 0.755429 1 2 cbr 512 ------- 0 1.0 5.0 17 19
- 0.755429 1 2 cbr 512 ------- 0 1.0 5.0 17 19
r 0.758334 1 2 cbr 512 ------- 0 1.0 5.0 16 18
+ 0.758334 2 3 cbr 512 ------- 0 1.0 5.0 16 18
- 0.762235 2 3 cbr 512 ------- 0 1.0 5.0 11 13
+ 0.764571 1 2 cbr 512 ------- 0 1.0 5.0 18 20
- 0.764571 1 2 cbr 512 ------- 0 1.0 5.0 18 20
+ 0.765701 3 6 cbr 512 ------- 0 1.0 5.0 0 1
- 0.765701 3 6 cbr 512 ------- 0 1.0 5.0 0 1
d 0.765705 4 6 cbr 512 ------- 0 1.0 5.0 0 1
r 0.766661 2 3 cbr 512 ------- 0 1.0 5.0 3 4
h 0.766661 3 6 cbr 512 ------- 0 1.0 5.0 3 4
r 0.767477 1 2 cbr 512 ------- 0 1.0 5.0 17 19
+ 0.767477 2 3 cbr 512 ------- 0 1.0 5.0 17 19
r 0.771235 6 3 ack 40 ------- 1 4.0 0.0 0 11
+ 0.771235 3 2 ack 40 ------- 1 4.0 0.0 0 11
- 0.771235 3 2 ack 40 ------- 1 4.0 0.0 0 11
+ 0.773714 1 2 cbr 512 ------- 0 1.0 5.0 19 21
- 0.773714 1 2 cbr 512 ------- 0 1.0 5.0 19 21
- 0.775888 2 3 cbr 512 ------- 0 1.0 5.0 12 14
r 0.776619 1 2 cbr 512 ------- 0 1.0 5.0 18 20
+ 0.776619 2 3 cbr 512 ------- 0 1.0 5.0 18 20
+ 0.779355 3 6 cbr 512 ------- 0 1.0 5.0 1 2
- 0.779355 3 6 cbr 512 ------- 0 1.0 5.0 1 2
d 0.779359 4 6 cbr 512 ------- 0 1.0 5.0 1 2
r 0.780315 2 3 cbr 512 ------- 0 1.0 5.0 4 5
h 0.780315 3 6 cbr 512 ------- 0 1.0 5.0 4 5
+ 0.782857 1 2 cbr 512 ------- 0 1.0 5.0 20 22
- 0.782857 1 2 cbr 512 ------- 0 1.0 5.0 20 22
r 0.785762 1 2 cbr 512 ------- 0 1.0 5.0 19 21
+ 0.785762 2 3 cbr 512 ------- 0 1.0 5.0 19 21
- 0.789541 2 3 cbr 512 ------- 0 1.0 5.0 13 15
+ 0.792 1 2 cbr 512 ------- 0 1.0 5.0 21 23
- 0.792 1 2 cbr 512 ------- 0 1.0 5.0 21 23
+ 0.793008 3 6 cbr 512 ------- 0 1.0 5.0 2 3
- 0.793008 3 6 cbr 512 ------- 0 1.0 5.0 2 3
d 0.793012 4 6 cbr 512 ------- 0 1.0 5.0 2 3
r 0.793968 2 3 cbr 512 ------- 0 1.0 5.0 5 6
h 0.793968 3 6 cbr 512 ------- 0 1.0 5.0 5 6
r 0.794905 1 2 cbr 512 ------- 0 1.0 5.0 20 22
+ 0.794905 2 3 cbr 512 ------- 0 1.0 5.0 20 22
+ 0.801143 1 2 cbr 512 ------- 0 1.0 5.0 22 24
- 0.801143 1 2 cbr 512 ------- 0 1.0 5.0 22 24
- 0.803195 2 3 cbr 512 ------- 0 1.0 5.0 14 16
r 0.804048 1 2 cbr 512 ------- 0 1.0 5.0 21 23
+ 0.804048 2 3 cbr 512 ------- 0 1.0 5.0 21 23
r 0.805705 6 5 cbr 512 ------- 0 1.0 5.0 0 1
+ 0.806661 3 6 cbr 512 ------- 0 1.0 5.0 3 4
- 0.806661 3 6 cbr 512 ------- 0 1.0 5.0 3 4
d 0.806665 4 6 cbr 512 ------- 0 1.0 5.0 3 4
r 0.807621 2 3 cbr 512 ------- 0 1.0 5.0 6 7
h 0.807621 3 6 cbr 512 ------- 0 1.0 5.0 6 7
+ 0.810286 1 2 cbr 512 ------- 0 1.0 5.0 23 25
- 0.810286 1 2 cbr 512 ------- 0 1.0 5.0 23 25
r 0.813191 1 2 cbr 512 ------- 0 1.0 5.0 22 24
+ 0.813191 2 3 cbr 512 ------- 0 1.0 5.0 22 24
- 0.816848 2 3 cbr 512 ------- 0 1.0 5.0 15 17
r 0.819359 6 5 cbr 512 ------- 0 1.0 5.0 1 2
+ 0.819429 1 2 cbr 512 ------- 0 1.0 5.0 24 26
- 0.819429 1 2 cbr 512 ------- 0 1.0 5.0 24 26
+ 0.820315 3 6 cbr 512 ------- 0 1.0 5.0 4 5
- 0.820315 3 6 cbr 512 ------- 0 1.0 5.0 4 5
d 0.820319 4 6 cbr 512 ------- 0 1.0 5.0 4 5
r 0.821275 2 3 cbr 512 ------- 0 1.0 5.0 7 8
h 0.821275 3 6 cbr 512 ------- 0 1.0 5.0 7 8
r 0.822334 1 2 cbr 512 ------- 0 1.0 5.0 23 25
+ 0.822334 2 3 cbr 512 ------- 0 1.0 5.0 23 25
+ 0.828571 1 2 cbr 512 ------- 0 1.0 5.0 25 27
- 0.828571 1 2 cbr 512 ------- 0 1.0 5.0 25 27
- 0.830501 2 3 cbr 512 ------- 0 1.0 5.0 16 18
r 0.831477 1 2 cbr 512 ------- 0 1.0 5.0 24 26
+ 0.831477 2 3 cbr 512 ------- 0 1.0 5.0 24 26
r 0.833012 6 5 cbr 512 ------- 0 1.0 5.0 2 3
+ 0.833968 3 6 cbr 512 ------- 0 1.0 5.0 5 6
- 0.833968 3 6 cbr 512 ------- 0 1.0 5.0 5 6
d 0.833972 4 6 cbr 512 ------- 0 1.0 5.0 5 6
r 0.834928 2 3 cbr 512 ------- 0 1.0 5.0 8 9
h 0.834928 3 6 cbr 512 ------- 0 1.0 5.0 8 9
+ 0.837714 1 2 cbr 512 ------- 0 1.0 5.0 26 28
- 0.837714 1 2 cbr 512 ------- 0 1.0 5.0 26 28
r 0.840619 1 2 cbr 512 ------- 0 1.0 5.0 25 27
+ 0.840619 2 3 cbr 512 ------- 0 1.0 5.0 25 27
- 0.844155 2 3 cbr 512 ------- 0 1.0 5.0 17 19
r 0.846665 6 5 cbr 512 ------- 0 1.0 5.0 3 4
+ 0.846857 1 2 cbr 512 ------- 0 1.0 5.0 27 29
- 0.846857 1 2 cbr 512 ------- 0 1.0 5.0 27 29
+ 0.847621 3 6 cbr 512 ------- 0 1.0 5.0 6 7
- 0.847621 3 6 cbr 512 ------- 0 1.0 5.0 6 7
d 0.847625 4 6 cbr 512 ------- 0 1.0 5.0 6 7
r 0.848581 2 3 cbr 512 ------- 0 1.0 5.0 9 10
h 0.848581 3 6 cbr 512 ------- 0 1.0 5.0 9 10
r 0.849762 1 2 cbr 512 ------- 0 1.0 5.0 26 28
+ 0.849762 2 3 cbr 512 ------- 0 1.0 5.0 26 28
+ 0.856 1 2 cbr 512 ------- 0 1.0 5.0 28 30
- 0.856 1 2 cbr 512 ------- 0 1.0 5.0 28 30
- 0.857808 2 3 cbr 512 ------- 0 1.0 5.0 18 20
r 0.858905 1 2 cbr 512 ------- 0 1.0 5.0 27 29
+ 0.858905 2 3 cbr 512 ------- 0 1.0 5.0 27 29
r 0.860319 6 5 cbr 512 ------- 0 1.0 5.0 4 5
+ 0.861275 3 6 cbr 512 ------- 0 1.0 5.0 7 8
- 0.861275 3 6 cbr 512 ------- 0 1.0 5.0 7 8
d 0.861279 4 6 cbr 512 ------- 0 1.0 5.0 7 8
r 0.862235 2 3 cbr 512 ------- 0 1.0 5.0 10 12
h 0.862235 3 6 cbr 512 ------- 0 1.0 5.0 10 12
+ 0.865143 1 2 cbr 512 ------- 0 1.0 5.0 29 31
- 0.865143 1 2 cbr 512 ------- 0 1.0 5.0 29 31
r 0.868048 1 2 cbr 512 ------- 0 1.0 5.0 28 30
+ 0.868048 2 3 cbr 512 ------- 0 1.0 5.0 28 30
- 0.871461 2 3 cbr 512 ------- 0 1.0 5.0 19 21
r 0.872301 3 2 ack 40 ------- 1 4.0 0.0 0 11
+ 0.872301 2 0 ack 40 ------- 1 4.0 0.0 0 11
- 0.872301 2 0 ack 40 ------- 1 4.0 0.0 0 11
r 0.873972 6 5 cbr 512 ------- 0 1.0 5.0 5 6
+ 0.874286 1 2 cbr 512 ------- 0 1.0 5.0 30 32
- 0.874286 1 2 cbr 512 ------- 0 1.0 5.0 30 32
+ 0.874928 3 6 cbr 512 ------- 0 1.0 5.0 8 9
- 0.874928 3 6 cbr 512 ------- 0 1.0 5.0 8 9
d 0.874932 4 6 cbr 512 ------- 0 1.0 5.0 8 9
r 0.875888 2 3 cbr 512 ------- 0 1.0 5.0 11 13
h 0.875888 3 6 cbr 512 ------- 0 1.0 5.0 11 13
r 0.877191 1 2 cbr 512 ------- 0 1.0 5.0 29 31
+ 0.877191 2 3 cbr 512 ------- 0 1.0 5.0 29 31
r 0.882461 2 0 ack 40 ------- 1 4.0 0.0 0 11
+ 0.882461 0 2 tcp 296 ------- 1 0.0 4.0 1 33
- 0.882461 0 2 tcp 296 ------- 1 0.0 4.0 1 33
+ 0.882461 0 2 tcp 296 ------- 1 0.0 4.0 2 34
+ 0.883429 1 2 cbr 512 ------- 0 1.0 5.0 31 35
- 0.883429 1 2 cbr 512 ------- 0 1.0 5.0 31 35
- 0.883645 0 2 tcp 296 ------- 1 0.0 4.0 2 34
- 0.885115 2 3 cbr 512 ------- 0 1.0 5.0 20 22
r 0.886334 1 2 cbr 512 ------- 0 1.0 5.0 30 32
+ 0.886334 2 3 cbr 512 ------- 0 1.0 5.0 30 32
r 0.887625 6 5 cbr 512 ------- 0 1.0 5.0 6 7
+ 0.888581 3 6 cbr 512 ------- 0 1.0 5.0 9 10
- 0.888581 3 6 cbr 512 ------- 0 1.0 5.0 9 10
d 0.888585 4 6 cbr 512 ------- 0 1.0 5.0 9 10
r 0.889541 2 3 cbr 512 ------- 0 1.0 5.0 12 14
h 0.889541 3 6 cbr 512 ------- 0 1.0 5.0 12 14
+ 0.892571 1 2 cbr 512 ------- 0 1.0 5.0 32 36
- 0.892571 1 2 cbr 512 ------- 0 1.0 5.0 32 36
r 0.893645 0 2 tcp 296 ------- 1 0.0 4.0 1 33
+ 0.893645 2 3 tcp 296 ------- 1 0.0 4.0 1 33
r 0.894829 0 2 tcp 296 ------- 1 0.0 4.0 2 34
+ 0.894829 2 3 tcp 296 ------- 1 0.0 4.0 2 34
r 0.895477 1 2 cbr 512 ------- 0 1.0 5.0 31 35
+ 0.895477 2 3 cbr 512 ------- 0 1.0 5.0 31 35
- 0.898768 2 3 cbr 512 ------- 0 1.0 5.0 21 23
r 0.901279 6 5 cbr 512 ------- 0 1.0 5.0 7 8
+ 0.901714 1 2 cbr 512 ------- 0 1.0 5.0 33 37
- 0.901714 1 2 cbr 512 ------- 0 1.0 5.0 33 37
+ 0.902235 3 6 cbr 512 ------- 0 1.0 5.0 10 12
- 0.902235 3 6 cbr 512 ------- 0 1.0 5.0 10 12
d 0.902239 4 6 cbr 512 ------- 0 1.0 5.0 10 12
r 0.903195 2 3 cbr 512 ------- 0 1.0 5.0 13 15
h 0.903195 3 6 cbr 512 ------- 0 1.0 5.0 13 15
r 0.904619 1 2 cbr 512 ------- 0 1.0 5.0 32 36
+ 0.904619 2 3 cbr 512 ------- 0 1.0 5.0 32 36
+ 0.910857 1 2 cbr 512 ------- 0 1.0 5.0 34 38
- 0.910857 1 2 cbr 512 ------- 0 1.0 5.0 34 38
- 0.912421 2 3 cbr 512 ------- 0 1.0 5.0 22 24
r 0.913762 1 2 cbr 512 ------- 0 1.0 5.0 33 37
+ 0.913762 2 3 cbr 512 ------- 0 1.0 5.0 33 37
r 0.914932 6 5 cbr 512 ------- 0 1.0 5.0 8 9
+ 0.915888 3 6 cbr 512 ------- 0 1.0 5.0 11 13
- 0.915888 3 6 cbr 512 ------- 0 1.0 5.0 11 13
d 0.915892 4 6 cbr 512 ------- 0 1.0 5.0 11 13
r 0.916848 2 3 cbr 512 ------- 0 1.0 5.0 14 16
h 0.916848 3 6 cbr 512 ------- 0 1.0 5.0 14 16
+ 0.92 1 2 cbr 512 ------- 0 1.0 5.0 35 39
- 0.92 1 2 cbr 512 ------- 0 1.0 5.0 35 39
r 0.922905 1 2 cbr 512 ------- 0 1.0 5.0 34 38
+ 0.922905 2 3 cbr 512 ------- 0 1.0 5.0 34 38
- 0.926075 2 3 cbr 512 ------- 0 1.0 5.0 23 25
r 0.928585 6 5 cbr 512 ------- 0 1.0 5.0 9 10
+ 0.929143 1 2 cbr 512 ------- 0 1.0 5.0 36 40
- 0.929143 1 2 cbr 512 ------- 0 1.0 5.0 36 40
+ 0.929541 3 6 cbr 512 ------- 0 1.0 5.0 12 14
- 0.929541 3 6 cbr 512 ------- 0 1.0 5.0 12 14
d 0.929545 4 6 cbr 512 ------- 0 1.0 5.0 12 14
r 0.930501 2 3 cbr 512 ------- 0 1.0 5.0 15 17
h 0.930501 3 6 cbr 512 ------- 0 1.0 5.0 15 17
r 0.932048 1 2 cbr 512 ------- 0 1.0 5.0 35 39
+ 0.932048 2 3 cbr 512 ------- 0 1.0 5.0 35 39
+ 0.938286 1 2 cbr 512 ------- 0 1.0 5.0 37 41
- 0.938286 1 2 cbr 512 ------- 0 1.0 5.0 37 41
- 0.939728 2 3 cbr 512 ------- 0 1.0 5.0 24 26
r 0.941191 1 2 cbr 512 ------- 0 1.0 5.0 36 40
+ 0.941191 2 3 cbr 512 ------- 0 1.0 5.0 36 40
r 0.942239 6 5 cbr 512 ------- 0 1.0 5.0 10 12
+ 0.943195 3 6 cbr 512 ------- 0 1.0 5.0 13 15
- 0.943195 3 6 cbr 512 ------- 0 1.0 5.0 13 15
d 0.943199 4 6 cbr 512 ------- 0 1.0 5.0 13 15
r 0.944155 2 3 cbr 512 ------- 0 1.0 5.0 16 18
h 0.944155 3 6 cbr 512 ------- 0 1.0 5.0 16 18
+ 0.947429 1 2 cbr 512 ------- 0 1.0 5.0 38 42
- 0.947429 1 2 cbr 512 ------- 0 1.0 5.0 38 42
r 0.950334 1 2 cbr 512 ------- 0 1.0 5.0 37 41
+ 0.950334 2 3 cbr 512 ------- 0 1.0 5.0 37 41
- 0.953381 2 3 cbr 512 ------- 0 1.0 5.0 25 27
r 0.955892 6 5 cbr 512 ------- 0 1.0 5.0 11 13
+ 0.956571 1 2 cbr 512 ------- 0 1.0 5.0 39 43
- 0.956571 1 2 cbr 512 ------- 0 1.0 5.0 39 43
+ 0.956848 3 6 cbr 512 ------- 0 1.0 5.0 14 16
- 0.956848 3 6 cbr 512 ------- 0 1.0 5.0 14 16
d 0.956852 4 6 cbr 512 ------- 0 1.0 5.0 14 16
r 0.957808 2 3 cbr 512 ------- 0 1.0 5.0 17 19
h 0.957808 3 6 cbr 512 ------- 0 1.0 5.0 17 19
r 0.959477 1 2 cbr 512 ------- 0 1.0 5.0 38 42
+ 0.959477 2 3 cbr 512 ------- 0 1.0 5.0 38 42
+ 0.965714 1 2 cbr 512 ------- 0 1.0 5.0 40 44
- 0.965714 1 2 cbr 512 ------- 0 1.0 5.0 40 44
- 0.967035 2 3 cbr 512 ------- 0 1.0 5.0 26 28
r 0.968619 1 2 cbr 512 ------- 0 1.0 5.0 39 43
+ 0.968619 2 3 cbr 512 ------- 0 1.0 5.0 39 43
r 0.969545 6 5 cbr 512 ------- 0 1.0 5.0 12 14
+ 0.970501 3 6 cbr 512 ------- 0 1.0 5.0 15 17
- 0.970501 3 6 cbr 512 ------- 0 1.0 5.0 15 17
d 0.970505 4 6 cbr 512 ------- 0 1.0 5.0 15 17
r 0.971461 2 3 cbr 512 ------- 0 1.0 5.0 18 20
h 0.971461 3 6 cbr 512 ------- 0 1.0 5.0 18 20
+ 0.974857 1 2 cbr 512 ------- 0 1.0 5.0 41 45
- 0.974857 1 2 cbr 512 ------- 0 1.0 5.0 41 45
r 0.977762 1 2 cbr 512 ------- 0 1.0 5.0 40 44
+ 0.977762 2 3 cbr 512 ------- 0 1.0 5.0 40 44
- 0.980688 2 3 cbr 512 ------- 0 1.0 5.0 27 29
r 0.983199 6 5 cbr 512 ------- 0 1.0 5.0 13 15
+ 0.984 1 2 cbr 512 ------- 0 1.0 5.0 42 46
- 0.984 1 2 cbr 512 ------- 0 1.0 5.0 42 46
+ 0.984155 3 6 cbr 512 ------- 0 1.0 5.0 16 18
- 0.984155 3 6 cbr 512 ------- 0 1.0 5.0 16 18
d 0.984159 4 6 cbr 512 ------- 0 1.0 5.0 16 18
r 0.985115 2 3 cbr 512 ------- 0 1.0 5.0 19 21
h 0.985115 3 6 cbr 512 ------- 0 1.0 5.0 19 21
r 0.986905 1 2 cbr 512 ------- 0 1.0 5.0 41 45
+ 0.986905 2 3 cbr 512 ------- 0 1.0 5.0 41 45
+ 0.993143 1 2 cbr 512 ------- 0 1.0 5.0 43 47
- 0.993143 1 2 cbr 512 ------- 0 1.0 5.0 43 47
- 0.994341 2 3 cbr 512 ------- 0 1.0 5.0 28 30
r 0.996048 1 2 cbr 512 ------- 0 1.0 5.0 42 46
+ 0.996048 2 3 cbr 512 ------- 0 1.0 5.0 42 46
r 0.996852 6 5 cbr 512 ------- 0 1.0 5.0 14 16
+ 0.997808 3 6 cbr 512 ------- 0 1.0 5.0 17 19
- 0.997808 3 6 cbr 512 ------- 0 1.0 5.0 17 19
d 0.997812 4 6 cbr 512 ------- 0 1.0 5.0 17 19
r 0.998768 2 3 cbr 512 ------- 0 1.0 5.0 20 22
h 0.998768 3 6 cbr 512 ------- 0 1.0 5.0 20 22
+ 1.002286 1 2 cbr 512 ------- 0 1.0 5.0 44 48
- 1.002286 1 2 cbr 512 ------- 0 1.0 5.0 44 48
r 1.005191 1 2 cbr 512 ------- 0 1.0 5.0 43 47
+ 1.005191 2 3 cbr 512 ------- 0 1.0 5.0 43 47
- 1.007995 2 3 cbr 512 ------- 0 1.0 5.0 29 31
r 1.010505 6 5 cbr 512 ------- 0 1.0 5.0 15 17
+ 1.011429 1 2 cbr 512 ------- 0 1.0 5.0 45 49
- 1.011429 1 2 cbr 512 ------- 0 1.0 5.0 45 49
+ 1.011461 3 6 cbr 512 ------- 0 1.0 5.0 18 20
- 1.011461 3 6 cbr 512 ------- 0 1.0 5.0 18 20
d 1.011465 4 6 cbr 512 ------- 0 1.0 5.0 18 20
r 1.012421 2 3 cbr 512 ------- 0 1.0 5.0 21 23
h 1.012421 3 6 cbr 512 ------- 0 1.0 5.0 21 23
r 1.014334 1 2 cbr 512 ------- 0 1.0 5.0 44 48
+ 1.014334 2 3 cbr 512 ------- 0 1.0 5.0 44 48
+ 1.020571 1 2 cbr 512 ------- 0 1.0 5.0 46 50
- 1.020571 1 2 cbr 512 ------- 0 1.0 5.0 46 50
- 1.021648 2 3 cbr 512 ------- 0 1.0 5.0 30 32
r 1.023477 1 2 cbr 512 ------- 0 1.0 5.0 45 49
+ 1.023477 2 3 cbr 512 ------- 0 1.0 5.0 45 49
r 1.024159 6 5 cbr 512 ------- 0 1.0 5.0 16 18
+ 1.025115 3 6 cbr 512 ------- 0 1.0 5.0 19 21
- 1.025115 3 6 cbr 512 ------- 0 1.0 5.0 19 21
d 1.025119 4 6 cbr 512 ------- 0 1.0 5.0 19 21
r 1.026075 2 3 cbr 512 ------- 0 1.0 5.0 22 24
h 1.026075 3 6 cbr 512 ------- 0 1.0 5.0 22 24
+ 1.029714 1 2 cbr 512 ------- 0 1.0 5.0 47 51
- 1.029714 1 2 cbr 512 ------- 0 1.0 5.0 47 51
r 1.032619 1 2 cbr 512 ------- 0 1.0 5.0 46 50
+ 1.032619 2 3 cbr 512 ------- 0 1.0 5.0 46 50
- 1.035301 2 3 tcp 296 ------- 1 0.0 4.0 1 33
r 1.037812 6 5 cbr 512 ------- 0 1.0 5.0 17 19
+ 1.038768 3 6 cbr 512 ------- 0 1.0 5.0 20 22
- 1.038768 3 6 cbr 512 ------- 0 1.0 5.0 20 22
d 1.038772 4 6 cbr 512 ------- 0 1.0 5.0 20 22
+ 1.038857 1 2 cbr 512 ------- 0 1.0 5.0 48 52
- 1.038857 1 2 cbr 512 ------- 0 1.0 5.0 48 52
r 1.039728 2 3 cbr 512 ------- 0 1.0 5.0 23 25
h 1.039728 3 6 cbr 512 ------- 0 1.0 5.0 23 25
r 1.041762 1 2 cbr 512 ------- 0 1.0 5.0 47 51
+ 1.041762 2 3 cbr 512 ------- 0 1.0 5.0 47 51
- 1.043195 2 3 tcp 296 ------- 1 0.0 4.0 2 34
+ 1.048 1 2 cbr 512 ------- 0 1.0 5.0 49 53
- 1.048 1 2 cbr 512 ------- 0 1.0 5.0 49 53
r 1.050905 1 2 cbr 512 ------- 0 1.0 5.0 48 52
+ 1.050905 2 3 cbr 512 ------- 0 1.0 5.0 48 52
- 1.051088 2 3 cbr 512 ------- 0 1.0 5.0 31 35
r 1.051465 6 5 cbr 512 ------- 0 1.0 5.0 18 20
+ 1.052421 3 6 cbr 512 ------- 0 1.0 5.0 21 23
- 1.052421 3 6 cbr 512 ------- 0 1.0 5.0 21 23
d 1.052425 4 6 cbr 512 ------- 0 1.0 5.0 21 23
r 1.053381 2 3 cbr 512 ------- 0 1.0 5.0 24 26
h 1.053381 3 6 cbr 512 ------- 0 1.0 5.0 24 26
+ 1.057143 1 2 cbr 512 ------- 0 1.0 5.0 50 54
- 1.057143 1 2 cbr 512 ------- 0 1.0 5.0 50 54
r 1.060048 1 2 cbr 512 ------- 0 1.0 5.0 49 53
+ 1.060048 2 3 cbr 512 ------- 0 1.0 5.0 49 53
- 1.064741 2 3 cbr 512 ------- 0 1.0 5.0 32 36
r 1.065119 6 5 cbr 512 ------- 0 1.0 5.0 19 21
+ 1.066075 3 6 cbr 512 ------- 0 1.0 5.0 22 24
- 1.066075 3 6 cbr 512 ------- 0 1.0 5.0 22 24
d 1.066079 4 6 cbr 512 ------- 0 1.0 5.0 22 24
+ 1.066286 1 2 cbr 512 ------- 0 1.0 5.0 51 55
- 1.066286 1 2 cbr 512 ------- 0 1.0 5.0 51 55
r 1.067035 2 3 cbr 512 ------- 0 1.0 5.0 25 27
h 1.067035 3 6 cbr 512 ------- 0 1.0 5.0 25 27
r 1.069191 1 2 cbr 512 ------- 0 1.0 5.0 50 54
+ 1.069191 2 3 cbr 512 ------- 0 1.0 5.0 50 54
+ 1.075429 1 2 cbr 512 ------- 0 1.0 5.0 52 56
- 1.075429 1 2 cbr 512 ------- 0 1.0 5.0 52 56
r 1.078334 1 2 cbr 512 ------- 0 1.0 5.0 51 55
+ 1.078334 2 3 cbr 512 ------- 0 1.0 5.0 51 55
- 1.078395 2 3 cbr 512 ------- 0 1.0 5.0 33 37
r 1.078772 6 5 cbr 512 ------- 0 1.0 5.0 20 22
+ 1.079728 3 6 cbr 512 ------- 0 1.0 5.0 23 25
- 1.079728 3 6 cbr 512 ------- 0 1.0 5.0 23 25
d 1.079732 4 6 cbr 512 ------- 0 1.0 5.0 23 25
r 1.080688 2 3 cbr 512 ------- 0 1.0 5.0 26 28
h 1.080688 3 6 cbr 512 ------- 0 1.0 5.0 26 28
+ 1.084571 1 2 cbr 512 ------- 0 1.0 5.0 53 57
- 1.084571 1 2 cbr 512 ------- 0 1.0 5.0 53 57
r 1.087477 1 2 cbr 512 ------- 0 1.0 5.0 52 56
+ 1.087477 2 3 cbr 512 ------- 0 1.0 5.0 52 56
- 1.092048 2 3 cbr 512 ------- 0 1.0 5.0 34 38
r 1.092425 6 5 cbr 512 ------- 0 1.0 5.0 21 23
+ 1.093381 3 6 cbr 512 ------- 0 1.0 5.0 24 26
- 1.093381 3 6 cbr 512 ------- 0 1.0 5.0 24 26
d 1.093385 4 6 cbr 512 ------- 0 1.0 5.0 24 26
+ 1.093714 1 2 cbr 512 ------- 0 1.0 5.0 54 58
- 1.093714 1 2 cbr 512 ------- 0 1.0 5.0 54 58
r 1.094341 2 3 cbr 512 ------- 0 1.0 5.0 27 29
h 1.094341 3 6 cbr 512 ------- 0 1.0 5.0 27 29
r 1.096619 1 2 cbr 512 ------- 0 1.0 5.0 53 57
+ 1.096619 2 3 cbr 512 ------- 0 1.0 5.0 53 57
+ 1.102857 1 2 cbr 512 ------- 0 1.0 5.0 55 59
- 1.102857 1 2 cbr 512 ------- 0 1.0 5.0 55 59
- 1.105701 2 3 cbr 512 ------- 0 1.0 5.0 35 39
r 1.105762 1 2 cbr 512 ------- 0 1.0 5.0 54 58
+ 1.105762 2 3 cbr 512 ------- 0 1.0 5.0 54 58
r 1.106079 6 5 cbr 512 ------- 0 1.0 5.0 22 24
+ 1.107035 3 6 cbr 512 ------- 0 1.0 5.0 25 27
- 1.107035 3 6 cbr 512 ------- 0 1.0 5.0 25 27
d 1.107039 4 6 cbr 512 ------- 0 1.0 5.0 25 27
r 1.107995 2 3 cbr 512 ------- 0 1.0 5.0 28 30
h 1.107995 3 6 cbr 512 ------- 0 1.0 5.0 28 30
+ 1.112 1 2 cbr 512 ------- 0 1.0 5.0 56 60
- 1.112 1 2 cbr 512 ------- 0 1.0 5.0 56 60
r 1.114905 1 2 cbr 512 ------- 0 1.0 5.0 55 59
+ 1.114905 2 3 cbr 512 ------- 0 1.0 5.0 55 59
d 1.114905 2 3 cbr 512 ------- 0 1.0 5.0 55 59
- 1.119355 2 3 cbr 512 ------- 0 1.0 5.0 36 40
r 1.119732 6 5 cbr 512 ------- 0 1.0 5.0 23 25
+ 1.120688 3 6 cbr 512 ------- 0 1.0 5.0 26 28
- 1.120688 3 6 cbr 512 ------- 0 1.0 5.0 26 28
d 1.120692 4 6 cbr 512 ------- 0 1.0 5.0 26 28
+ 1.121143 1 2 cbr 512 ------- 0 1.0 5.0 57 61
- 1.121143 1 2 cbr 512 ------- 0 1.0 5.0 57 61
r 1.121648 2 3 cbr 512 ------- 0 1.0 5.0 29 31
h 1.121648 3 6 cbr 512 ------- 0 1.0 5.0 29 31
r 1.124048 1 2 cbr 512 ------- 0 1.0 5.0 56 60
+ 1.124048 2 3 cbr 512 ------- 0 1.0 5.0 56 60
+ 1.130286 1 2 cbr 512 ------- 0 1.0 5.0 58 62
- 1.130286 1 2 cbr 512 ------- 0 1.0 5.0 58 62
- 1.133008 2 3 cbr 512 ------- 0 1.0 5.0 37 41
r 1.133191 1 2 cbr 512 ------- 0 1.0 5.0 57 61
+ 1.133191 2 3 cbr 512 ------- 0 1.0 5.0 57 61
r 1.133385 6 5 cbr 512 ------- 0 1.0 5.0 24 26
+ 1.134341 3 6 cbr 512 ------- 0 1.0 5.0 27 29
- 1.134341 3 6 cbr 512 ------- 0 1.0 5.0 27 29
d 1.134345 4 6 cbr 512 ------- 0 1.0 5.0 27 29
r 1.135301 2 3 cbr 512 ------- 0 1.0 5.0 30 32
h 1.135301 3 6 cbr 512 ------- 0 1.0 5.0 30 32
+ 1.139429 1 2 cbr 512 ------- 0 1.0 5.0 59 63
- 1.139429 1 2 cbr 512 ------- 0 1.0 5.0 59 63
r 1.142334 1 2 cbr 512 ------- 0 1.0 5.0 58 62
+ 1.142334 2 3 cbr 512 ------- 0 1.0 5.0 58 62
d 1.142334 2 3 cbr 512 ------- 0 1.0 5.0 58 62
r 1.143195 2 3 tcp 296 ------- 1 0.0 4.0 1 33
h 1.143195 3 6 tcp 296 ------- 1 0.0 4.0 1 33
- 1.146661 2 3 cbr 512 ------- 0 1.0 5.0 38 42
r 1.147039 6 5 cbr 512 ------- 0 1.0 5.0 25 27
+ 1.147995 3 6 cbr 512 ------- 0 1.0 5.0 28 30
- 1.147995 3 6 cbr 512 ------- 0 1.0 5.0 28 30
d 1.147999 4 6 cbr 512 ------- 0 1.0 5.0 28 30
+ 1.148571 1 2 cbr 512 ------- 0 1.0 5.0 60 64
- 1.148571 1 2 cbr 512 ------- 0 1.0 5.0 60 64
r 1.151088 2 3 tcp 296 ------- 1 0.0 4.0 2 34
h 1.151088 3 6 tcp 296 ------- 1 0.0 4.0 2 34
r 1.151477 1 2 cbr 512 ------- 0 1.0 5.0 59 63
+ 1.151477 2 3 cbr 512 ------- 0 1.0 5.0 59 63
+ 1.157714 1 2 cbr 512 ------- 0 1.0 5.0 61 65
- 1.157714 1 2 cbr 512 ------- 0 1.0 5.0 61 65
- 1.160315 2 3 cbr 512 ------- 0 1.0 5.0 39 43
r 1.160619 1 2 cbr 512 ------- 0 1.0 5.0 60 64
+ 1.160619 2 3 cbr 512 ------- 0 1.0 5.0 60 64
r 1.160692 6 5 cbr 512 ------- 0 1.0 5.0 26 28
+ 1.161648 3 6 cbr 512 ------- 0 1.0 5.0 29 31
- 1.161648 3 6 cbr 512 ------- 0 1.0 5.0 29 31
d 1.161652 4 6 cbr 512 ------- 0 1.0 5.0 29 31
r 1.164741 2 3 cbr 512 ------- 0 1.0 5.0 31 35
h 1.164741 3 6 cbr 512 ------- 0 1.0 5.0 31 35
+ 1.166857 1 2 cbr 512 ------- 0 1.0 5.0 62 66
- 1.166857 1 2 cbr 512 ------- 0 1.0 5.0 62 66
r 1.169762 1 2 cbr 512 ------- 0 1.0 5.0 61 65
+ 1.169762 2 3 cbr 512 ------- 0 1.0 5.0 61 65
d 1.169762 2 3 cbr 512 ------- 0 1.0 5.0 61 65
- 1.173968 2 3 cbr 512 ------- 0 1.0 5.0 40 44
r 1.174345 6 5 cbr 512 ------- 0 1.0 5.0 27 29
+ 1.175301 3 6 cbr 512 ------- 0 1.0 5.0 30 32
- 1.175301 3 6 cbr 512 ------- 0 1.0 5.0 30 32
d 1.175305 4 6 cbr 512 ------- 0 1.0 5.0 30 32
+ 1.176 1 2 cbr 512 ------- 0 1.0 5.0 63 67
- 1.176 1 2 cbr 512 ------- 0 1.0 5.0 63 67
r 1.178395 2 3 cbr 512 ------- 0 1.0 5.0 32 36
h 1.178395 3 6 cbr 512 ------- 0 1.0 5.0 32 36
r 1.178905 1 2 cbr 512 ------- 0 1.0 5.0 62 66
+ 1.178905 2 3 cbr 512 ------- 0 1.0 5.0 62 66
+ 1.183195 3 6 tcp 296 ------- 1 0.0 4.0 1 33
- 1.183195 3 6 tcp 296 ------- 1 0.0 4.0 1 33
d 1.183199 5 6 tcp 296 ------- 1 0.0 4.0 1 33
+ 1.185143 1 2 cbr 512 ------- 0 1.0 5.0 64 68
- 1.185143 1 2 cbr 512 ------- 0 1.0 5.0 64 68
- 1.187621 2 3 cbr 512 ------- 0 1.0 5.0 41 45
r 1.187999 6 5 cbr 512 ------- 0 1.0 5.0 28 30
r 1.188048 1 2 cbr 512 ------- 0 1.0 5.0 63 67
+ 1.188048 2 3 cbr 512 ------- 0 1.0 5.0 63 67
+ 1.191088 3 6 tcp 296 ------- 1 0.0 4.0 2 34
- 1.191088 3 6 tcp 296 ------- 1 0.0 4.0 2 34
d 1.191092 5 6 tcp 296 ------- 1 0.0 4.0 2 34
r 1.192048 2 3 cbr 512 ------- 0 1.0 5.0 33 37
h 1.192048 3 6 cbr 512 ------- 0 1.0 5.0 33 37
+ 1.194286 1 2 cbr 512 ------- 0 1.0 5.0 65 69
- 1.194286 1 2 cbr 512 ------- 0 1.0 5.0 65 69
r 1.197191 1 2 cbr 512 ------- 0 1.0 5.0 64 68
+ 1.197191 2 3 cbr 512 ------- 0 1.0 5.0 64 68
d 1.197191 2 3 cbr 512 ------- 0 1.0 5.0 64 68
- 1.201275 2 3 cbr 512 ------- 0 1.0 5.0 42 46
r 1.201652 6 5 cbr 512 ------- 0 1.0 5.0 29 31
+ 1.203429 1 2 cbr 512 ------- 0 1.0 5.0 66 70
- 1.203429 1 2 cbr 512 ------- 0 1.0 5.0 66 70
+ 1.204741 3 6 cbr 512 ------- 0 1.0 5.0 31 35
- 1.204741 3 6 cbr 512 ------- 0 1.0 5.0 31 35
d 1.204745 4 6 cbr 512 ------- 0 1.0 5.0 31 35
r 1.205701 2 3 cbr 512 ------- 0 1.0 5.0 34 38
h 1.205701 3 6 cbr 512 ------- 0 1.0 5.0 34 38
r 1.206334 1 2 cbr 512 ------- 0 1.0 5.0 65 69
+ 1.206334 2 3 cbr 512 ------- 0 1.0 5.0 65 69
+ 1.212571 1 2 cbr 512 ------- 0 1.0 5.0 67 71
- 1.212571 1 2 cbr 512 ------- 0 1.0 5.0 67 71
- 1.214928 2 3 cbr 512 ------- 0 1.0 5.0 43 47
r 1.215305 6 5 cbr 512 ------- 0 1.0 5.0 30 32
r 1.215477 1 2 cbr 512 ------- 0 1.0 5.0 66 70
+ 1.215477 2 3 cbr 512 ------- 0 1.0 5.0 66 70
+ 1.218395 3 6 cbr 512 ------- 0 1.0 5.0 32 36
- 1.218395 3 6 cbr 512 ------- 0 1.0 5.0 32 36
d 1.218399 4 6 cbr 512 ------- 0 1.0 5.0 32 36
r 1.219355 2 3 cbr 512 ------- 0 1.0 5.0 35 39
h 1.219355 3 6 cbr 512 ------- 0 1.0 5.0 35 39
+ 1.221714 1 2 cbr 512 ------- 0 1.0 5.0 68 72
- 1.221714 1 2 cbr 512 ------- 0 1.0 5.0 68 72
r 1.223199 6 4 tcp 296 ------- 1 0.0 4.0 1 33
h 1.223199 4 6 ack 40 ------- 1 4.0 0.0 1 73
r 1.224619 1 2 cbr 512 ------- 0 1.0 5.0 67 71
+ 1.224619 2 3 cbr 512 ------- 0 1.0 5.0 67 71
d 1.224619 2 3 cbr 512 ------- 0 1.0 5.0 67 71
- 1.228581 2 3 cbr 512 ------- 0 1.0 5.0 44 48
+ 1.230857 1 2 cbr 512 ------- 0 1.0 5.0 69 74
- 1.230857 1 2 cbr 512 ------- 0 1.0 5.0 69 74
r 1.231092 6 4 tcp 296 ------- 1 0.0 4.0 2 34
h 1.231092 4 6 ack 40 ------- 1 4.0 0.0 2 75
+ 1.232048 3 6 cbr 512 ------- 0 1.0 5.0 33 37
- 1.232048 3 6 cbr 512 ------- 0 1.0 5.0 33 37
d 1.232052 4 6 cbr 512 ------- 0 1.0 5.0 33 37
r 1.233008 2 3 cbr 512 ------- 0 1.0 5.0 36 40
h 1.233008 3 6 cbr 512 ------- 0 1.0 5.0 36 40
r 1.233762 1 2 cbr 512 ------- 0 1.0 5.0 68 72
+ 1.233762 2 3 cbr 512 ------- 0 1.0 5.0 68 72
+ 1.24 1 2 cbr 512 ------- 0 1.0 5.0 70 76
- 1.24 1 2 cbr 512 ------- 0 1.0 5.0 70 76
- 1.242235 2 3 cbr 512 ------- 0 1.0 5.0 45 49
r 1.242905 1 2 cbr 512 ------- 0 1.0 5.0 69 74
+ 1.242905 2 3 cbr 512 ------- 0 1.0 5.0 69 74
r 1.244745 6 5 cbr 512 ------- 0 1.0 5.0 31 35
+ 1.245701 3 6 cbr 512 ------- 0 1.0 5.0 34 38
- 1.245701 3 6 cbr 512 ------- 0 1.0 5.0 34 38
d 1.245705 4 6 cbr 512 ------- 0 1.0 5.0 34 38
r 1.246661 2 3 cbr 512 ------- 0 1.0 5.0 37 41
h 1.246661 3 6 cbr 512 ------- 0 1.0 5.0 37 41
+ 1.249143 1 2 cbr 512 ------- 0 1.0 5.0 71 77
- 1.249143 1 2 cbr 512 ------- 0 1.0 5.0 71 77
r 1.252048 1 2 cbr 512 ------- 0 1.0 5.0 70 76
+ 1.252048 2 3 cbr 512 ------- 0 1.0 5.0 70 76
d 1.252048 2 3 cbr 512 ------- 0 1.0 5.0 70 76
- 1.255888 2 3 cbr 512 ------- 0 1.0 5.0 46 50
+ 1.258286 1 2 cbr 512 ------- 0 1.0 5.0 72 78
- 1.258286 1 2 cbr 512 ------- 0 1.0 5.0 72 78
r 1.258399 6 5 cbr 512 ------- 0 1.0 5.0 32 36
+ 1.259355 3 6 cbr 512 ------- 0 1.0 5.0 35 39
- 1.259355 3 6 cbr 512 ------- 0 1.0 5.0 35 39
d 1.259359 4 6 cbr 512 ------- 0 1.0 5.0 35 39
r 1.260315 2 3 cbr 512 ------- 0 1.0 5.0 38 42
h 1.260315 3 6 cbr 512 ------- 0 1.0 5.0 38 42
r 1.261191 1 2 cbr 512 ------- 0 1.0 5.0 71 77
+ 1.261191 2 3 cbr 512 ------- 0 1.0 5.0 71 77
+ 1.263199 4 6 ack 40 ------- 1 4.0 0.0 1 73
- 1.263199 4 6 ack 40 ------- 1 4.0 0.0 1 73
d 1.263203 5 6 ack 40 ------- 1 4.0 0.0 1 73
+ 1.267429 1 2 cbr 512 ------- 0 1.0 5.0 73 79
- 1.267429 1 2 cbr 512 ------- 0 1.0 5.0 73 79
- 1.269541 2 3 cbr 512 ------- 0 1.0 5.0 47 51
r 1.270334 1 2 cbr 512 ------- 0 1.0 5.0 72 78
+ 1.270334 2 3 cbr 512 ------- 0 1.0 5.0 72 78
+ 1.271092 4 6 ack 40 ------- 1 4.0 0.0 2 75
- 1.271092 4 6 ack 40 ------- 1 4.0 0.0 2 75
d 1.271096 5 6 ack 40 ------- 1 4.0 0.0 2 75
r 1.272052 6 5 cbr 512 ------- 0 1.0 5.0 33 37
+ 1.273008 3 6 cbr 512 ------- 0 1.0 5.0 36 40
- 1.273008 3 6 cbr 512 ------- 0 1.0 5.0 36 40
d 1.273012 4 6 cbr 512 ------- 0 1.0 5.0 36 40
r 1.273968 2 3 cbr 512 ------- 0 1.0 5.0 39 43
h 1.273968 3 6 cbr 512 ------- 0 1.0 5.0 39 43
+ 1.276571 1 2 cbr 512 ------- 0 1.0 5.0 74 80
- 1.276571 1 2 cbr 512 ------- 0 1.0 5.0 74 80
r 1.279477 1 2 cbr 512 ------- 0 1.0 5.0 73 79
+ 1.279477 2 3 cbr 512 ------- 0 1.0 5.0 73 79
d 1.279477 2 3 cbr 512 ------- 0 1.0 5.0 73 79
- 1.283195 2 3 cbr 512 ------- 0 1.0 5.0 48 52
r 1.285705 6 5 cbr 512 ------- 0 1.0 5.0 34 38
+ 1.285714 1 2 cbr 512 ------- 0 1.0 5.0 75 81
- 1.285714 1 2 cbr 512 ------- 0 1.0 5.0 75 81
+ 1.286661 3 6 cbr 512 ------- 0 1.0 5.0 37 41
- 1.286661 3 6 cbr 512 ------- 0 1.0 5.0 37 41
d 1.286665 4 6 cbr 512 ------- 0 1.0 5.0 37 41
r 1.287621 2 3 cbr 512 ------- 0 1.0 5.0 40 44
h 1.287621 3 6 cbr 512 ------- 0 1.0 5.0 40 44
r 1.288619 1 2 cbr 512 ------- 0 1.0 5.0 74 80
+ 1.288619 2 3 cbr 512 ------- 0 1.0 5.0 74 80
+ 1.294857 1 2 cbr 512 ------- 0 1.0 5.0 76 82
- 1.294857 1 2 cbr 512 ------- 0 1.0 5.0 76 82
- 1.296848 2 3 cbr 512 ------- 0 1.0 5.0 49 53
r 1.297762 1 2 cbr 512 ------- 0 1.0 5.0 75 81
+ 1.297762 2 3 cbr 512 ------- 0 1.0 5.0 75 81