n -t 0 -s 0 -S DLABEL -l "tcp source" -L ""
n -t 0 -s 1 -S DLABEL -l "udp source" -L ""
V -t * -v 1.0a5 -a 0
A -t * -n 1 -p 0 -o 0x7fffffff -c 30 -a 1
A -t * -h 1 -m 1073741823 -s 0
n -t * -a 0 -s 0 -S UP -v circle -c blue -i blue
n -t * -a 1 -s 1 -S UP -v circle -c green -i green
n -t * -a 2 -s 2 -S UP -v circle -c black -i black
n -t * -a 3 -s 3 -S UP -v circle -c red -i red
l -t * -s 0 -d 2 -S UP -r 2000000 -D 0.01 -c black
l -t * -s 1 -d 2 -S UP -r 2000000 -D 0.01 -c black
l -t * -s 2 -d 3 -S UP -r 900000 -D 0.01 -c black
+ -t 0.5 -s 0 -d 2 -p tcp -e 40 -c 0 -i 0 -a 0 -x {0.0 3.0 0 ------- null}
- -t 0.5 -s 0 -d 2 -p tcp -e 40 -c 0 -i 0 -a 0 -x {0.0 3.0 0 ------- null}
h -t 0.5 -s 0 -d 2 -p tcp -e 40 -c 0 -i 0 -a 0 -x {0.0 3.0 -1 ------- null}
r -t 0.51016 -s 0 -d 2 -p tcp -e 40 -c 0 -i 0 -a 0 -x {0.0 3.0 0 ------- null}
+ -t 0.51016 -s 2 -d 3 -p tcp -e 40 -c 0 -i 0 -a 0 -x {0.0 3.0 0 ------- null}
- -t 0.51016 -s 2 -d 3 -p tcp -e 40 -c 0 -i 0 -a 0 -x {0.0 3.0 0 ------- null}
h -t 0.51016 -s 2 -d 3 -p tcp -e 40 -c 0 -i 0 -a 0 -x {0.0 3.0 -1 ------- null}
r -t 0.520515555555556 -s 2 -d 3 -p tcp -e 40 -c 0 -i 0 -a 0 -x {0.0 3.0 0 ------- null}
+ -t 0.520515555555556 -s 3 -d 2 -p ack -e 40 -c 0 -i 1 -a 0 -x {3.0 0.0 0 ------- null}
- -t 0.520515555555556 -s 3 -d 2 -p ack -e 40 -c 0 -i 1 -a 0 -x {3.0 0.0 0 ------- null}
h -t 0.520515555555556 -s 3 -d 2 -p ack -e 40 -c 0 -i 1 -a 0 -x {3.0 0.0 -1 ------- null}
r -t 0.530871111111111 -s 3 -d 2 -p ack -e 40 -c 0 -i 1 -a 0 -x {3.0 0.0 0 ------- null}
+ -t 0.530871111111111 -s 2 -d 0 -p ack -e 40 -c 0 -i 1 -a 0 -x {3.0 0.0 0 ------- null}
- -t 0.530871111111111 -s 2 -d 0 -p ack -e 40 -c 0 -i 1 -a 0 -x {3.0 0.0 0 ------- null}
h -t 0.530871111111111 -s 2 -d 0 -p ack -e 40 -c 0 -i 1 -a 0 -x {3.0 0.0 -1 ------- null}
r -t 0.541031111111111 -s 2 -d 0 -p ack -e 40 -c 0 -i 1 -a 0 -x {3.0 0.0 0 ------- null}
+ -t 0.541031111111111 -s 0 -d 2 -p tcp -e 1040 -c 0 -i 2 -a 0 -x {0.0 3.0 1 ------- null}
- -t 0.541031111111111 -s 0 -d 2 -p tcp -e 1040 -c 0 -i 2 -a 0 -x {0.0 3.0 1 ------- null}
h -t 0.541031111111111 -s 0 -d 2 -p tcp -e 1040 -c 0 -i 2 -a 0 -x {0.0 3.0 -1 ------- null}
+ -t 0.541031111111111 -s 0 -d 2 -p tcp -e 1040 -c 0 -i 3 -a 0 -x {0.0 3.0 2 ------- null}
- -t 0.545191111111111 -s 0 -d 2 -p tcp -e 1040 -c 0 -i 3 -a 0 -x {0.0 3.0 2 ------- null}
h -t 0.545191111111111 -s 0 -d 2 -p tcp -e 1040 -c 0 -i 3 -a 0 -x {0.0 3.0 -1 ------- null}
r -t 0.555191111111111 -s 0 -d 2 -p tcp -e 1040 -c 0 -i 2 -a 0 -x {0.0 3.0 1 ------- null}
+ -t 0.555191111111111 -s 2 -d 3 -p tcp -e 1040 -c 0 -i 2 -a 0 -x {0.0 3.0 1 ------- null}
- -t 0.555191111111111 -s 2 -d 3 -p tcp -e 1040 -c 0 -i 2 -a 0 -x {0.0 3.0 1 ------- null}
h -t 0.555191111111111 -s 2 -d 3 -p tcp -e 1040 -c 0 -i 2 -a 0 -x {0.0 3.0 -1 ------- null}
r -t 0.559351111111111 -s 0 -d 2 -p tcp -e 1040 -c 0 -i 3 -a 0 -x {0.0 3.0 2 ------- null}
+ -t 0.559351111111111 -s 2 -d 3 -p tcp -e 1040 -c 0 -i 3 -a 0 -x {0.0 3.0 2 ------- null}
- -t 0.564435555555555 -s 2 -d 3 -p tcp -e 1040 -c 0 -i 3 -a 0 -x {0.0 3.0 2 ------- null}
h -t 0.564435555555555 -s 2 -d 3 -p tcp -e 1040 -c 0 -i 3 -a 0 -x {0.0 3.0 -1 ------- null}
r -t 0.574435555555555 -s 2 -d 3 -p tcp -e 1040 -c 0 -i 2 -a 0 -x {0.0 3.0 1 ------- null}
+ -t 0.574435555555555 -s 3 -d 2 -p ack -e 40 -c 0 -i 4 -a 0 -x {3.0 0.0 1 ------- null}
- -t 0.574435555555555 -s 3 -d 2 -p ack -e 40 -c 0 -i 4 -a 0 -x {3.0 0.0 1 ------- null}
h -t 0.574435555555555 -s 3 -d 2 -p ack -e 40 -c 0 -i 4 -a 0 -x {3.0 0.0 -1 ------- null}
r -t 0.58368 -s 2 -d 3 -p tcp -e 1040 -c 0 -i 3 -a 0 -x {0.0 3.0 2 ------- null}
+ -t 0.58368 -s 3 -d 2 -p ack -e 40 -c 0 -i 5 -a 0 -x {3.0 0.0 2 ------- null}
- -t 0.58368 -s 3 -d 2 -p ack -e 40 -c 0 -i 5 -a 0 -x {3.0 0.0 2 ------- null}
h -t 0.58368 -s 3 -d 2 -p ack -e 40 -c 0 -i 5 -a 0 -x {3.0 0.0 -1 ------- null}
r -t 0.584791111111111 -s 3 -d 2 -p ack -e 40 -c 0 -i 4 -a 0 -x {3.0 0.0 1 ------- null}
+ -t 0.584791111111111 -s 2 -d 0 -p ack -e 40 -c 0 -i 4 -a 0 -x {3.0 0.0 1 ------- null}
- -t 0.584791111111111 -s 2 -d 0 -p ack -e 40 -c 0 -i 4 -a 0 -x {3.0 0.0 1 ------- null}
h -t 0.584791111111111 -s 2 -d 0 -p ack -e 40 -c 0 -i 4 -a 0 -x {3.0 0.0 -1 ------- null}
r -t 0.594035555555555 -s 3 -d 2 -p ack -e 40 -c 0 -i 5 -a 0 -x {3.0 0.0 2 ------- null}
+ -t 0.594035555555555 -s 2 -d 0 -p ack -e 40 -c 0 -i 5 -a 0 -x {3.0 0.0 2 ------- null}
- -t 0.594035555555555 -s 2 -d 0 -p ack -e 40 -c 0 -i 5 -a 0 -x {3.0 0.0 2 ------- null}
h -t 0.594035555555555 -s 2 -d 0 -p ack -e 40 -c 0 -i 5 -a 0 -x {3.0 0.0 -1 ------- null}
r -t 0.594951111111111 -s 2 -d 0 -p ack -e 40 -c 0 -i 4 -a 0 -x {3.0 0.0 1 ------- null}
+ -t 0.594951111111111 -s 0 -d 2 -p tcp -e 1040 -c 0 -i 6 -a 0 -x {0.0 3.0 3 ------- null}
- -t 0.594951111111111 -s 0 -d 2 -p tcp -e 1040 -c 0 -i 6 -a 0 -x {0.0 3.0 3 ------- null}
h -t 0.594951111111111 -s 0 -d 2 -p tcp -e 1040 -c 0 -i 6 -a 0 -x {0.0 3.0 -1 ------- null}
+ -t 0.594951111111111 -s 0 -d 2 -p tcp -e 1040 -c 0 -i 7 -a 0 -x {0.0 3.0 4 ------- null}
- -t 0.599111111111111 -s 0 -d 2 -p tcp -e 1040 -c 0 -i 7 -a 0 -x {0.0 3.0 4 ------- null}
h -t 0.599111111111111 -s 0 -d 2 -p tcp -e 1040 -c 0 -i 7 -a 0 -x {0.0 3.0 -1 ------- null}
+ -t 0.6 -s 1 -d 2 -p cbr -e 512 -c 0 -i 8 -a 0 -x {1.0 3.1 0 ------- null}
- -t 0.6 -s 1 -d 2 -p cbr -e 512 -c 0 -i 8 -a 0 -x {1.0 3.1 0 ------- null}
h -t 0.6 -s 1 -d 2 -p cbr -e 512 -c 0 -i 8 -a 0 -x {1.0 3.1 -1 ------- null}
r -t 0.604195555555555 -s 2 -d 0 -p ack -e 40 -c 0 -i 5 -a 0 -x {3.0 0.0 2 ------- null}
+ -t 0.604195555555555 -s 0 -d 2 -p tcp -e 1040 -c 0 -i 9 -a 0 -x {0.0 3.0 5 ------- null}
- -t 0.604195555555555 -s 0 -d 2 -p tcp -e 1040 -c 0 -i 9 -a 0 -x {0.0 3.0 5 ------- null}
h -t 0.604195555555555 -s 0 -d 2 -p tcp -e 1040 -c 0 -i 9 -a 0 -x {0.0 3.0 -1 ------- null}
+ -t 0.604195555555555 -s 0 -d 2 -p tcp -e 1040 -c 0 -i 10 -a 0 -x {0.0 3.0 6 ------- null}
+ -t 0.605 -s 1 -d 2 -p cbr -e 512 -c 0 -i 11 -a 0 -x {1.0 3.1 1 ------- null}
- -t 0.605 -s 1 -d 2 -p cbr -e 512 -c 0 -i 11 -a 0 -x {1.0 3.1 1 ------- null}
h -t 0.605 -s 1 -d 2 -p cbr -e 512 -c 0 -i 11 -a 0 -x {1.0 3.1 -1 ------- null}
- -t 0.608355555555555 -s 0 -d 2 -p tcp -e 1040 -c 0 -i 10 -a 0 -x {0.0 3.0 6 ------- null}
h -t 0.608355555555555 -s 0 -d 2 -p tcp -e 1040 -c 0 -i 10 -a 0 -x {0.0 3.0 -1 ------- null}
r -t 0.609111111111111 -s 0 -d 2 -p tcp -e 1040 -c 0 -i 6 -a 0 -x {0.0 3.0 3 ------- null}
+ -t 0.609111111111111 -s 2 -d 3 -p tcp -e 1040 -c 0 -i 6 -a 0 -x {0.0 3.0 3 ------- null}
- -t 0.609111111111111 -s 2 -d 3 -p tcp -e 1040 -c 0 -i 6 -a 0 -x {0.0 3.0 3 ------- null}
h -t 0.609111111111111 -s 2 -d 3 -p tcp -e 1040 -c 0 -i 6 -a 0 -x {0.0 3.0 -1 ------- null}
+ -t 0.61 -s 1 -d 2 -p cbr -e 512 -c 0 -i 12 -a 0 -x {1.0 3.1 2 ------- null}
- -t 0.61 -s 1 -d 2 -p cbr -e 512 -c 0 -i 12 -a 0 -x {1.0 3.1 2 ------- null}
h -t 0.61 -s 1 -d 2 -p cbr -e 512 -c 0 -i 12 -a 0 -x {1.0 3.1 -1 ------- null}
r -t 0.612048 -s 1 -d 2 -p cbr -e 512 -c 0 -i 8 -a 0 -x {1.0 3.1 0 ------- null}
+ -t 0.612048 -s 2 -d 3 -p cbr -e 512 -c 0 -i 8 -a 0 -x {1.0 3.1 0 ------- null}
r -t 0.613271111111111 -s 0 -d 2 -p tcp -e 1040 -c 0 -i 7 -a 0 -x {0.0 3.0 4 ------- null}
+ -t 0.613271111111111 -s 2 -d 3 -p tcp -e 1040 -c 0 -i 7 -a 0 -x {0.0 3.0 4 ------- null}
+ -t 0.615 -s 1 -d 2 -p cbr -e 512 -c 0 -i 13 -a 0 -x {1.0 3.1 3 ------- null}
- -t 0.615 -s 1 -d 2 -p cbr -e 512 -c 0 -i 13 -a 0 -x {1.0 3.1 3 ------- null}
h -t 0.615 -s 1 -d 2 -p cbr -e 512 -c 0 -i 13 -a 0 -x {1.0 3.1 -1 ------- null}
r -t 0.617048 -s 1 -d 2 -p cbr -e 512 -c 0 -i 11 -a 0 -x {1.0 3.1 1 ------- null}
+ -t 0.617048 -s 2 -d 3 -p cbr -e 512 -c 0 -i 11 -a 0 -x {1.0 3.1 1 ------- null}
r -t 0.618355555555555 -s 0 -d 2 -p tcp -e 1040 -c 0 -i 9 -a 0 -x {0.0 3.0 5 ------- null}
+ -t 0.618355555555555 -s 2 -d 3 -p tcp -e 1040 -c 0 -i 9 -a 0 -x {0.0 3.0 5 ------- null}
- -t 0.618355555555555 -s 2 -d 3 -p cbr -e 512 -c 0 -i 8 -a 0 -x {1.0 3.1 0 ------- null}
h -t 0.618355555555555 -s 2 -d 3 -p cbr -e 512 -c 0 -i 8 -a 0 -x {1.0 3.1 -1 ------- null}
+ -t 0.62 -s 1 -d 2 -p cbr -e 512 -c 0 -i 14 -a 0 -x {1.0 3.1 4 ------- null}
- -t 0.62 -s 1 -d 2 -p cbr -e 512 -c 0 -i 14 -a 0 -x {1.0 3.1 4 ------- null}
h -t 0.62 -s 1 -d 2 -p cbr -e 512 -c 0 -i 14 -a 0 -x {1.0 3.1 -1 ------- null}
r -t 0.622048 -s 1 -d 2 -p cbr -e 512 -c 0 -i 12 -a 0 -x {1.0 3.1 2 ------- null}
+ -t 0.622048 -s 2 -d 3 -p cbr -e 512 -c 0 -i 12 -a 0 -x {1.0 3.1 2 ------- null}
r -t 0.622515555555555 -s 0 -d 2 -p tcp -e 1040 -c 0 -i 10 -a 0 -x {0.0 3.0 6 ------- null}
+ -t 0.622515555555555 -s 2 -d 3 -p tcp -e 1040 -c 0 -i 10 -a 0 -x {0.0 3.0 6 ------- null}
- -t 0.622906666666666 -s 2 -d 3 -p tcp -e 1040 -c 0 -i 7 -a 0 -x {0.0 3.0 4 ------- null}
h -t 0.622906666666666 -s 2 -d 3 -p tcp -e 1040 -c 0 -i 7 -a 0 -x {0.0 3.0 -1 ------- null}
+ -t 0.625 -s 1 -d 2 -p cbr -e 512 -c 0 -i 15 -a 0 -x {1.0 3.1 5 ------- null}
- -t 0.625 -s 1 -d 2 -p cbr -e 512 -c 0 -i 15 -a 0 -x {1.0 3.1 5 ------- null}
h -t 0.625 -s 1 -d 2 -p cbr -e 512 -c 0 -i 15 -a 0 -x {1.0 3.1 -1 ------- null}
r -t 0.627048 -s 1 -d 2 -p cbr -e 512 -c 0 -i 13 -a 0 -x {1.0 3.1 3 ------- null}
+ -t 0.627048 -s 2 -d 3 -p cbr -e 512 -c 0 -i 13 -a 0 -x {1.0 3.1 3 ------- null}
r -t 0.628355555555555 -s 2 -d 3 -p tcp -e 1040 -c 0 -i 6 -a 0 -x {0.0 3.0 3 ------- null}
+ -t 0.628355555555555 -s 3 -d 2 -p ack -e 40 -c 0 -i 16 -a 0 -x {3.0 0.0 3 ------- null}
- -t 0.628355555555555 -s 3 -d 2 -p ack -e 40 -c 0 -i 16 -a 0 -x {3.0 0.0 3 ------- null}
h -t 0.628355555555555 -s 3 -d 2 -p ack -e 40 -c 0 -i 16 -a 0 -x {3.0 0.0 -1 ------- null}
+ -t 0.63 -s 1 -d 2 -p cbr -e 512 -c 0 -i 17 -a 0 -x {1.0 3.1 6 ------- null}
- -t 0.63 -s 1 -d 2 -p cbr -e 512 -c 0 -i 17 -a 0 -x {1.0 3.1 6 ------- null}
h -t 0.63 -s 1 -d 2 -p cbr -e 512 -c 0 -i 17 -a 0 -x {1.0 3.1 -1 ------- null}
r -t 0.632048 -s 1 -d 2 -p cbr -e 512 -c 0 -i 14 -a 0 -x {1.0 3.1 4 ------- null}
+ -t 0.632048 -s 2 -d 3 -p cbr -e 512 -c 0 -i 14 -a 0 -x {1.0 3.1 4 ------- null}
- -t 0.632151111111111 -s 2 -d 3 -p cbr -e 512 -c 0 -i 11 -a 0 -x {1.0 3.1 1 ------- null}
h -t 0.632151111111111 -s 2 -d 3 -p cbr -e 512 -c 0 -i 11 -a 0 -x {1.0 3.1 -1 ------- null}
r -t 0.632906666666666 -s 2 -d 3 -p cbr -e 512 -c 0 -i 8 -a 0 -x {1.0 3.1 0 ------- null}
+ -t 0.635 -s 1 -d 2 -p cbr -e 512 -c 0 -i 18 -a 0 -x {1.0 3.1 7 ------- null}
- -t 0.635 -s 1 -d 2 -p cbr -e 512 -c 0 -i 18 -a 0 -x {1.0 3.1 7 ------- null}
h -t 0.635 -s 1 -d 2 -p cbr -e 512 -c 0 -i 18 -a 0 -x {1.0 3.1 -1 ------- null}
- -t 0.636702222222222 -s 2 -d 3 -p tcp -e 1040 -c 0 -i 9 -a 0 -x {0.0 3.0 5 ------- null}
h -t 0.636702222222222 -s 2 -d 3 -p tcp -e 1040 -c 0 -i 9 -a 0 -x {0.0 3.0 -1 ------- null}
r -t 0.637048 -s 1 -d 2 -p cbr -e 512 -c 0 -i 15 -a 0 -x {1.0 3.1 5 ------- null}
+ -t 0.637048 -s 2 -d 3 -p cbr -e 512 -c 0 -i 15 -a 0 -x {1.0 3.1 5 ------- null}
r -t 0.638711111111111 -s 3 -d 2 -p ack -e 40 -c 0 -i 16 -a 0 -x {3.0 0.0 3 ------- null}
+ -t 0.638711111111111 -s 2 -d 0 -p ack -e 40 -c 0 -i 16 -a 0 -x {3.0 0.0 3 ------- null}
- -t 0.638711111111111 -s 2 -d 0 -p ack -e 40 -c 0 -i 16 -a 0 -x {3.0 0.0 3 ------- null}
h -t 0.638711111111111 -s 2 -d 0 -p ack -e 40 -c 0 -i 16 -a 0 -x {3.0 0.0 -1 ------- null}
+ -t 0.64 -s 1 -d 2 -p cbr -e 512 -c 0 -i 19 -a 0 -x {1.0 3.1 8 ------- null}
- -t 0.64 -s 1 -d 2 -p cbr -e 512 -c 0 -i 19 -a 0 -x {1.0 3.1 8 ------- null}
h -t 0.64 -s 1 -d 2 -p cbr -e 512 -c 0 -i 19 -a 0 -x {1.0 3.1 -1 ------- null}
r -t 0.642048 -s 1 -d 2 -p cbr -e 512 -c 0 -i 17 -a 0 -x {1.0 3.1 6 ------- null}
+ -t 0.642048 -s 2 -d 3 -p cbr -e 512 -c 0 -i 17 -a 0 -x {1.0 3.1 6 ------- null}
r -t 0.642151111111111 -s 2 -d 3 -p tcp -e 1040 -c 0 -i 7 -a 0 -x {0.0 3.0 4 ------- null}
+ -t 0.642151111111111 -s 3 -d 2 -p ack -e 40 -c 0 -i 20 -a 0 -x {3.0 0.0 4 ------- null}
- -t 0.642151111111111 -s 3 -d 2 -p ack -e 40 -c 0 -i 20 -a 0 -x {3.0 0.0 4 ------- null}
h -t 0.642151111111111 -s 3 -d 2 -p ack -e 40 -c 0 -i 20 -a 0 -x {3.0 0.0 -1 ------- null}
+ -t 0.645 -s 1 -d 2 -p cbr -e 512 -c 0 -i 21 -a 0 -x {1.0 3.1 9 ------- null}
- -t 0.645 -s 1 -d 2 -p cbr -e 512 -c 0 -i 21 -a 0 -x {1.0 3.1 9 ------- null}
h -t 0.645 -s 1 -d 2 -p cbr -e 512 -c 0 -i 21 -a 0 -x {1.0 3.1 -1 ------- null}
- -t 0.645946666666666 -s 2 -d 3 -p cbr -e 512 -c 0 -i 12 -a 0 -x {1.0 3.1 2 ------- null}
h -t 0.645946666666666 -s 2 -d 3 -p cbr -e 512 -c 0 -i 12 -a 0 -x {1.0 3.1 -1 ------- null}
r -t 0.646702222222222 -s 2 -d 3 -p cbr -e 512 -c 0 -i 11 -a 0 -x {1.0 3.1 1 ------- null}
r -t 0.647048 -s 1 -d 2 -p cbr -e 512 -c 0 -i 18 -a 0 -x {1.0 3.1 7 ------- null}
+ -t 0.647048 -s 2 -d 3 -p cbr -e 512 -c 0 -i 18 -a 0 -x {1.0 3.1 7 ------- null}
r -t 0.648871111111111 -s 2 -d 0 -p ack -e 40 -c 0 -i 16 -a 0 -x {3.0 0.0 3 ------- null}
+ -t 0.648871111111111 -s 0 -d 2 -p tcp -e 1040 -c 0 -i 22 -a 0 -x {0.0 3.0 7 ------- null}
- -t 0.648871111111111 -s 0 -d 2 -p tcp -e 1040 -c 0 -i 22 -a 0 -x {0.0 3.0 7 ------- null}
h -t 0.648871111111111 -s 0 -d 2 -p tcp -e 1040 -c 0 -i 22 -a 0 -x {0.0 3.0 -1 ------- null}
+ -t 0.648871111111111 -s 0 -d 2 -p tcp -e 1040 -c 0 -i 23 -a 0 -x {0.0 3.0 8 ------- null}
+ -t 0.65 -s 1 -d 2 -p cbr -e 512 -c 0 -i 24 -a 0 -x {1.0 3.1 10 ------- null}
- -t 0.65 -s 1 -d 2 -p cbr -e 512 -c 0 -i 24 -a 0 -x {1.0 3.1 10 ------- null}
h -t 0.65 -s 1 -d 2 -p cbr -e 512 -c 0 -i 24 -a 0 -x {1.0 3.1 -1 ------- null}
- -t 0.650497777777778 -s 2 -d 3 -p tcp -e 1040 -c 0 -i 10 -a 0 -x {0.0 3.0 6 ------- null}
h -t 0.650497777777778 -s 2 -d 3 -p tcp -e 1040 -c 0 -i 10 -a 0 -x {0.0 3.0 -1 ------- null}
r -t 0.652048 -s 1 -d 2 -p cbr -e 512 -c 0 -i 19 -a 0 -x {1.0 3.1 8 ------- null}
+ -t 0.652048 -s 2 -d 3 -p cbr -e 512 -c 0 -i 19 -a 0 -x {1.0 3.1 8 ------- null}
r -t 0.652506666666666 -s 3 -d 2 -p ack -e 40 -c 0 -i 20 -a 0 -x {3.0 0.0 4 ------- null}
+ -t 0.652506666666666 -s 2 -d 0 -p ack -e 40 -c 0 -i 20 -a 0 -x {3.0 0.0 4 ------- null}
- -t 0.652506666666666 -s 2 -d 0 -p ack -e 40 -c 0 -i 20 -a 0 -x {3.0 0.0 4 ------- null}
h -t 0.652506666666666 -s 2 -d 0 -p ack -e 40 -c 0 -i 20 -a 0 -x {3.0 0.0 -1 ------- null}
- -t 0.653031111111111 -s 0 -d 2 -p tcp -e 1040 -c 0 -i 23 -a 0 -x {0.0 3.0 8 ------- null}
h -t 0.653031111111111 -s 0 -d 2 -p tcp -e 1040 -c 0 -i 23 -a 0 -x {0.0 3.0 -1 ------- null}
+ -t 0.655 -s 1 -d 2 -p cbr -e 512 -c 0 -i 25 -a 0 -x {1.0 3.1 11 ------- null}
- -t 0.655 -s 1 -d 2 -p cbr -e 512 -c 0 -i 25 -a 0 -x {1.0 3.1 11 ------- null}
h -t 0.655 -s 1 -d 2 -p cbr -e 512 -c 0 -i 25 -a 0 -x {1.0 3.1 -1 ------- null}
r -t 0.655946666666666 -s 2 -d 3 -p tcp -e 1040 -c 0 -i 9 -a 0 -x {0.0 3.0 5 ------- null}
+ -t 0.655946666666666 -s 3 -d 2 -p ack -e 40 -c 0 -i 26 -a 0 -x {3.0 0.0 5 ------- null}
- -t 0.655946666666666 -s 3 -d 2 -p ack -e 40 -c 0 -i 26 -a 0 -x {3.0 0.0 5 ------- null}
h -t 0.655946666666666 -s 3 -d 2 -p ack -e 40 -c 0 -i 26 -a 0 -x {3.0 0.0 -1 ------- null}
r -t 0.657048 -s 1 -d 2 -p cbr -e 512 -c 0 -i 21 -a 0 -x {1.0 3.1 9 ------- null}
+ -t 0.657048 -s 2 -d 3 -p cbr -e 512 -c 0 -i 21 -a 0 -x {1.0 3.1 9 ------- null}
- -t 0.659742222222222 -s 2 -d 3 -p cbr -e 512 -c 0 -i 13 -a 0 -x {1.0 3.1 3 ------- null}
h -t 0.659742222222222 -s 2 -d 3 -p cbr -e 512 -c 0 -i 13 -a 0 -x {1.0 3.1 -1 ------- null}
+ -t 0.66 -s 1 -d 2 -p cbr -e 512 -c 0 -i 27 -a 0 -x {1.0 3.1 12 ------- null}
- -t 0.66 -s 1 -d 2 -p cbr -e 512 -c 0 -i 27 -a 0 -x {1.0 3.1 12 ------- null}
h -t 0.66 -s 1 -d 2 -p cbr -e 512 -c 0 -i 27 -a 0 -x {1.0 3.1 -1 ------- null}
r -t 0.660497777777778 -s 2 -d 3 -p cbr -e 512 -c 0 -i 12 -a 0 -x {1.0 3.1 2 ------- null}
r -t 0.662048 -s 1 -d 2 -p cbr -e 512 -c 0 -i 24 -a 0 -x {1.0 3.1 10 ------- null}
+ -t 0.662048 -s 2 -d 3 -p cbr -e 512 -c 0 -i 24 -a 0 -x {1.0 3.1 10 ------- null}
r -t 0.662666666666666 -s 2 -d 0 -p ack -e 40 -c 0 -i 20 -a 0 -x {3.0 0.0 4 ------- null}
+ -t 0.662666666666666 -s 0 -d 2 -p tcp -e 1040 -c 0 -i 28 -a 0 -x {0.0 3.0 9 ------- null}
- -t 0.662666666666666 -s 0 -d 2 -p tcp -e 1040 -c 0 -i 28 -a 0 -x {0.0 3.0 9 ------- null}
h -t 0.662666666666666 -s 0 -d 2 -p tcp -e 1040 -c 0 -i 28 -a 0 -x {0.0 3.0 -1 ------- null}
+ -t 0.662666666666666 -s 0 -d 2 -p tcp -e 1040 -c 0 -i 29 -a 0 -x {0.0 3.0 10 ------- null}
r -t 0.663031111111111 -s 0 -d 2 -p tcp -e 1040 -c 0 -i 22 -a 0 -x {0.0 3.0 7 ------- null}
+ -t 0.663031111111111 -s 2 -d 3 -p tcp -e 1040 -c 0 -i 22 -a 0 -x {0.0 3.0 7 ------- null}
- -t 0.664293333333333 -s 2 -d 3 -p cbr -e 512 -c 0 -i 14 -a 0 -x {1.0 3.1 4 ------- null}
h -t 0.664293333333333 -s 2 -d 3 -p cbr -e 512 -c 0 -i 14 -a 0 -x {1.0 3.1 -1 ------- null}
+ -t 0.665 -s 1 -d 2 -p cbr -e 512 -c 0 -i 30 -a 0 -x {1.0 3.1 13 ------- null}
- -t 0.665 -s 1 -d 2 -p cbr -e 512 -c 0 -i 30 -a 0 -x {1.0 3.1 13 ------- null}
h -t 0.665 -s 1 -d 2 -p cbr -e 512 -c 0 -i 30 -a 0 -x {1.0 3.1 -1 ------- null}
r -t 0.666302222222222 -s 3 -d 2 -p ack -e 40 -c 0 -i 26 -a 0 -x {3.0 0.0 5 ------- null}
+ -t 0.666302222222222 -s 2 -d 0 -p ack -e 40 -c 0 -i 26 -a 0 -x {3.0 0.0 5 ------- null}
- -t 0.666302222222222 -s 2 -d 0 -p ack -e 40 -c 0 -i 26 -a 0 -x {3.0 0.0 5 ------- null}
h -t 0.666302222222222 -s 2 -d 0 -p ack -e 40 -c 0 -i 26 -a 0 -x {3.0 0.0 -1 ------- null}
- -t 0.666826666666666 -s 0 -d 2 -p tcp -e 1040 -c 0 -i 29 -a 0 -x {0.0 3.0 10 ------- null}
h -t 0.666826666666666 -s 0 -d 2 -p tcp -e 1040 -c 0 -i 29 -a 0 -x {0.0 3.0 -1 ------- null}
r -t 0.667048 -s 1 -d 2 -p cbr -e 512 -c 0 -i 25 -a 0 -x {1.0 3.1 11 ------- null}
+ -t 0.667048 -s 2 -d 3 -p cbr -e 512 -c 0 -i 25 -a 0 -x {1.0 3.1 11 ------- null}
r -t 0.667191111111111 -s 0 -d 2 -p tcp -e 1040 -c 0 -i 23 -a 0 -x {0.0 3.0 8 ------- null}
+ -t 0.667191111111111 -s 2 -d 3 -p tcp -e 1040 -c 0 -i 23 -a 0 -x {0.0 3.0 8 ------- null}
- -t 0.668844444444444 -s 2 -d 3 -p cbr -e 512 -c 0 -i 15 -a 0 -x {1.0 3.1 5 ------- null}
h -t 0.668844444444444 -s 2 -d 3 -p cbr -e 512 -c 0 -i 15 -a 0 -x {1.0 3.1 -1 ------- null}
r -t 0.669742222222222 -s 2 -d 3 -p tcp -e 1040 -c 0 -i 10 -a 0 -x {0.0 3.0 6 ------- null}
+ -t 0.669742222222222 -s 3 -d 2 -p ack -e 40 -c 0 -i 31 -a 0 -x {3.0 0.0 6 ------- null}
- -t 0.669742222222222 -s 3 -d 2 -p ack -e 40 -c 0 -i 31 -a 0 -x {3.0 0.0 6 ------- null}
h -t 0.669742222222222 -s 3 -d 2 -p ack -e 40 -c 0 -i 31 -a 0 -x {3.0 0.0 -1 ------- null}
+ -t 0.67 -s 1 -d 2 -p cbr -e 512 -c 0 -i 32 -a 0 -x {1.0 3.1 14 ------- null}
- -t 0.67 -s 1 -d 2 -p cbr -e 512 -c 0 -i 32 -a 0 -x {1.0 3.1 14 ------- null}
h -t 0.67 -s 1 -d 2 -p cbr -e 512 -c 0 -i 32 -a 0 -x {1.0 3.1 -1 ------- null}
r -t 0.672048 -s 1 -d 2 -p cbr -e 512 -c 0 -i 27 -a 0 -x {1.0 3.1 12 ------- null}
+ -t 0.672048 -s 2 -d 3 -p cbr -e 512 -c 0 -i 27 -a 0 -x {1.0 3.1 12 ------- null}
- -t 0.673395555555555 -s 2 -d 3 -p cbr -e 512 -c 0 -i 17 -a 0 -x {1.0 3.1 6 ------- null}
h -t 0.673395555555555 -s 2 -d 3 -p cbr -e 512 -c 0 -i 17 -a 0 -x {1.0 3.1 -1 ------- null}
r -t 0.674293333333333 -s 2 -d 3 -p cbr -e 512 -c 0 -i 13 -a 0 -x {1.0 3.1 3 ------- null}
+ -t 0.675 -s 1 -d 2 -p cbr -e 512 -c 0 -i 33 -a 0 -x {1.0 3.1 15 ------- null}
- -t 0.675 -s 1 -d 2 -p cbr -e 512 -c 0 -i 33 -a 0 -x {1.0 3.1 15 ------- null}
h -t 0.675 -s 1 -d 2 -p cbr -e 512 -c 0 -i 33 -a 0 -x {1.0 3.1 -1 ------- null}
r -t 0.676462222222222 -s 2 -d 0 -p ack -e 40 -c 0 -i 26 -a 0 -x {3.0 0.0 5 ------- null}
+ -t 0.676462222222222 -s 0 -d 2 -p tcp -e 1040 -c 0 -i 34 -a 0 -x {0.0 3.0 11 ------- null}
- -t 0.676462222222222 -s 0 -d 2 -p tcp -e 1040 -c 0 -i 34 -a 0 -x {0.0 3.0 11 ------- null}
h -t 0.676462222222222 -s 0 -d 2 -p tcp -e 1040 -c 0 -i 34 -a 0 -x {0.0 3.0 -1 ------- null}
+ -t 0.676462222222222 -s 0 -d 2 -p tcp -e 1040 -c 0 -i 35 -a 0 -x {0.0 3.0 12 ------- null}
r -t 0.676826666666666 -s 0 -d 2 -p tcp -e 1040 -c 0 -i 28 -a 0 -x {0.0 3.0 9 ------- null}
+ -t 0.676826666666666 -s 2 -d 3 -p tcp -e 1040 -c 0 -i 28 -a 0 -x {0.0 3.0 9 ------- null}
r -t 0.677048 -s 1 -d 2 -p cbr -e 512 -c 0 -i 30 -a 0 -x {1.0 3.1 13 ------- null}
+ -t 0.677048 -s 2 -d 3 -p cbr -e 512 -c 0 -i 30 -a 0 -x {1.0 3.1 13 ------- null}
- -t 0.677946666666666 -s 2 -d 3 -p cbr -e 512 -c 0 -i 18 -a 0 -x {1.0 3.1 7 ------- null}
h -t 0.677946666666666 -s 2 -d 3 -p cbr -e 512 -c 0 -i 18 -a 0 -x {1.0 3.1 -1 ------- null}
r -t 0.678844444444444 -s 2 -d 3 -p cbr -e 512 -c 0 -i 14 -a 0 -x {1.0 3.1 4 ------- null}
+ -t 0.68 -s 1 -d 2 -p cbr -e 512 -c 0 -i 36 -a 0 -x {1.0 3.1 16 ------- null}
- -t 0.68 -s 1 -d 2 -p cbr -e 512 -c 0 -i 36 -a 0 -x {1.0 3.1 16 ------- null}
h -t 0.68 -s 1 -d 2 -p cbr -e 512 -c 0 -i 36 -a 0 -x {1.0 3.1 -1 ------- null}
r -t 0.680097777777777 -s 3 -d 2 -p ack -e 40 -c 0 -i 31 -a 0 -x {3.0 0.0 6 ------- null}
+ -t 0.680097777777777 -s 2 -d 0 -p ack -e 40 -c 0 -i 31 -a 0 -x {3.0 0.0 6 ------- null}
- -t 0.680097777777777 -s 2 -d 0 -p ack -e 40 -c 0 -i 31 -a 0 -x {3.0 0.0 6 ------- null}
h -t 0.680097777777777 -s 2 -d 0 -p ack -e 40 -c 0 -i 31 -a 0 -x {3.0 0.0 -1 ------- null}
- -t 0.680622222222222 -s 0 -d 2 -p tcp -e 1040 -c 0 -i 35 -a 0 -x {0.0 3.0 12 ------- null}
h -t 0.680622222222222 -s 0 -d 2 -p tcp -e 1040 -c 0 -i 35 -a 0 -x {0.0 3.0 -1 ------- null}
r -t 0.680986666666666 -s 0 -d 2 -p tcp -e 1040 -c 0 -i 29 -a 0 -x {0.0 3.0 10 ------- null}
+ -t 0.680986666666666 -s 2 -d 3 -p tcp -e 1040 -c 0 -i 29 -a 0 -x {0.0 3.0 10 ------- null}
r -t 0.682048 -s 1 -d 2 -p cbr -e 512 -c 0 -i 32 -a 0 -x {1.0 3.1 14 ------- null}
+ -t 0.682048 -s 2 -d 3 -p cbr -e 512 -c 0 -i 32 -a 0 -x {1.0 3.1 14 ------- null}
- -t 0.682497777777777 -s 2 -d 3 -p cbr -e 512 -c 0 -i 19 -a 0 -x {1.0 3.1 8 ------- null}
h -t 0.682497777777777 -s 2 -d 3 -p cbr -e 512 -c 0 -i 19 -a 0 -x {1.0 3.1 -1 ------- null}
r -t 0.683395555555555 -s 2 -d 3 -p cbr -e 512 -c 0 -i 15 -a 0 -x {1.0 3.1 5 ------- null}
+ -t 0.685 -s 1 -d 2 -p cbr -e 512 -c 0 -i 37 -a 0 -x {1.0 3.1 17 ------- null}
- -t 0.685 -s 1 -d 2 -p cbr -e 512 -c 0 -i 37 -a 0 -x {1.0 3.1 17 ------- null}
h -t 0.685 -s 1 -d 2 -p cbr -e 512 -c 0 -i 37 -a 0 -x {1.0 3.1 -1 ------- null}
r -t 0.687048 -s 1 -d 2 -p cbr -e 512 -c 0 -i 33 -a 0 -x {1.0 3.1 15 ------- null}
+ -t 0.687048 -s 2 -d 3 -p cbr -e 512 -c 0 -i 33 -a 0 -x {1.0 3.1 15 ------- null}
- -t 0.687048888888888 -s 2 -d 3 -p cbr -e 512 -c 0 -i 21 -a 0 -x {1.0 3.1 9 ------- null}
h -t 0.687048888888888 -s 2 -d 3 -p cbr -e 512 -c 0 -i 21 -a 0 -x {1.0 3.1 -1 ------- null}
r -t 0.687946666666666 -s 2 -d 3 -p cbr -e 512 -c 0 -i 17 -a 0 -x {1.0 3.1 6 ------- null}
+ -t 0.69 -s 1 -d 2 -p cbr -e 512 -c 0 -i 38 -a 0 -x {1.0 3.1 18 ------- null}
- -t 0.69 -s 1 -d 2 -p cbr -e 512 -c 0 -i 38 -a 0 -x {1.0 3.1 18 ------- null}
h -t 0.69 -s 1 -d 2 -p cbr -e 512 -c 0 -i 38 -a 0 -x {1.0 3.1 -1 ------- null}
r -t 0.690257777777777 -s 2 -d 0 -p ack -e 40 -c 0 -i 31 -a 0 -x {3.0 0.0 6 ------- null}
+ -t 0.690257777777777 -s 0 -d 2 -p tcp -e 1040 -c 0 -i 39 -a 0 -x {0.0 3.0 13 ------- null}
- -t 0.690257777777777 -s 0 -d 2 -p tcp -e 1040 -c 0 -i 39 -a 0 -x {0.0 3.0 13 ------- null}
h -t 0.690257777777777 -s 0 -d 2 -p tcp -e 1040 -c 0 -i 39 -a 0 -x {0.0 3.0 -1 ------- null}
+ -t 0.690257777777777 -s 0 -d 2 -p tcp -e 1040 -c 0 -i 40 -a 0 -x {0.0 3.0 14 ------- null}
r -t 0.690622222222222 -s 0 -d 2 -p tcp -e 1040 -c 0 -i 34 -a 0 -x {0.0 3.0 11 ------- null}
+ -t 0.690622222222222 -s 2 -d 3 -p tcp -e 1040 -c 0 -i 34 -a 0 -x {0.0 3.0 11 ------- null}
- -t 0.691599999999999 -s 2 -d 3 -p cbr -e 512 -c 0 -i 24 -a 0 -x {1.0 3.1 10 ------- null}
h -t 0.691599999999999 -s 2 -d 3 -p cbr -e 512 -c 0 -i 24 -a 0 -x {1.0 3.1 -1 ------- null}
r -t 0.692048 -s 1 -d 2 -p cbr -e 512 -c 0 -i 36 -a 0 -x {1.0 3.1 16 ------- null}
+ -t 0.692048 -s 2 -d 3 -p cbr -e 512 -c 0 -i 36 -a 0 -x {1.0 3.1 16 ------- null}
r -t 0.692497777777777 -s 2 -d 3 -p cbr -e 512 -c 0 -i 18 -a 0 -x {1.0 3.1 7 ------- null}
- -t 0.694417777777777 -s 0 -d 2 -p tcp -e 1040 -c 0 -i 40 -a 0 -x {0.0 3.0 14 ------- null}
h -t 0.694417777777777 -s 0 -d 2 -p tcp -e 1040 -c 0 -i 40 -a 0 -x {0.0 3.0 -1 ------- null}
r -t 0.694782222222222 -s 0 -d 2 -p tcp -e 1040 -c 0 -i 35 -a 0 -x {0.0 3.0 12 ------- null}
+ -t 0.694782222222222 -s 2 -d 3 -p tcp -e 1040 -c 0 -i 35 -a 0 -x {0.0 3.0 12 ------- null}
+ -t 0.695 -s 1 -d 2 -p cbr -e 512 -c 0 -i 41 -a 0 -x {1.0 3.1 19 ------- null}
- -t 0.695 -s 1 -d 2 -p cbr -e 512 -c 0 -i 41 -a 0 -x {1.0 3.1 19 ------- null}
h -t 0.695 -s 1 -d 2 -p cbr -e 512 -c 0 -i 41 -a 0 -x {1.0 3.1 -1 ------- null}
- -t 0.69615111111111 -s 2 -d 3 -p tcp -e 1040 -c 0 -i 22 -a 0 -x {0.0 3.0 7 ------- null}
h -t 0.69615111111111 -s 2 -d 3 -p tcp -e 1040 -c 0 -i 22 -a 0 -x {0.0 3.0 -1 ------- null}
r -t 0.697048 -s 1 -d 2 -p cbr -e 512 -c 0 -i 37 -a 0 -x {1.0 3.1 17 ------- null}
+ -t 0.697048 -s 2 -d 3 -p cbr -e 512 -c 0 -i 37 -a 0 -x {1.0 3.1 17 ------- null}
r -t 0.697048888888888 -s 2 -d 3 -p cbr -e 512 -c 0 -i 19 -a 0 -x {1.0 3.1 8 ------- null}
+ -t 0.7 -s 1 -d 2 -p cbr -e 512 -c 0 -i 42 -a 0 -x {1.0 3.1 20 ------- null}
- -t 0.7 -s 1 -d 2 -p cbr -e 512 -c 0 -i 42 -a 0 -x {1.0 3.1 20 ------- null}
h -t 0.7 -s 1 -d 2 -p cbr -e 512 -c 0 -i 42 -a 0 -x {1.0 3.1 -1 ------- null}
r -t 0.701599999999999 -s 2 -d 3 -p cbr -e 512 -c 0 -i 21 -a 0 -x {1.0 3.1 9 ------- null}
r -t 0.702048 -s 1 -d 2 -p cbr -e 512 -c 0 -i 38 -a 0 -x {1.0 3.1 18 ------- null}
+ -t 0.702048 -s 2 -d 3 -p cbr -e 512 -c 0 -i 38 -a 0 -x {1.0 3.1 18 ------- null}
r -t 0.704417777777777 -s 0 -d 2 -p tcp -e 1040 -c 0 -i 39 -a 0 -x {0.0 3.0 13 ------- null}
+ -t 0.704417777777777 -s 2 -d 3 -p tcp -e 1040 -c 0 -i 39 -a 0 -x {0.0 3.0 13 ------- null}
+ -t 0.705 -s 1 -d 2 -p cbr -e 512 -c 0 -i 43 -a 0 -x {1.0 3.1 21 ------- null}
- -t 0.705 -s 1 -d 2 -p cbr -e 512 -c 0 -i 43 -a 0 -x {1.0 3.1 21 ------- null}
h -t 0.705 -s 1 -d 2 -p cbr -e 512 -c 0 -i 43 -a 0 -x {1.0 3.1 -1 ------- null}
- -t 0.705395555555555 -s 2 -d 3 -p cbr -e 512 -c 0 -i 25 -a 0 -x {1.0 3.1 11 ------- null}
h -t 0.705395555555555 -s 2 -d 3 -p cbr -e 512 -c 0 -i 25 -a 0 -x {1.0 3.1 -1 ------- null}
r -t 0.706151111111111 -s 2 -d 3 -p cbr -e 512 -c 0 -i 24 -a 0 -x {1.0 3.1 10 ------- null}
r -t 0.707048 -s 1 -d 2 -p cbr -e 512 -c 0 -i 41 -a 0 -x {1.0 3.1 19 ------- null}
+ -t 0.707048 -s 2 -d 3 -p cbr -e 512 -c 0 -i 41 -a 0 -x {1.0 3.1 19 ------- null}
r -t 0.708577777777777 -s 0 -d 2 -p tcp -e 1040 -c 0 -i 40 -a 0 -x {0.0 3.0 14 ------- null}
+ -t 0.708577777777777 -s 2 -d 3 -p tcp -e 1040 -c 0 -i 40 -a 0 -x {0.0 3.0 14 ------- null}
- -t 0.709946666666666 -s 2 -d 3 -p tcp -e 1040 -c 0 -i 23 -a 0 -x {0.0 3.0 8 ------- null}
h -t 0.709946666666666 -s 2 -d 3 -p tcp -e 1040 -c 0 -i 23 -a 0 -x {0.0 3.0 -1 ------- null}
+ -t 0.71 -s 1 -d 2 -p cbr -e 512 -c 0 -i 44 -a 0 -x {1.0 3.1 22 ------- null}
- -t 0.71 -s 1 -d 2 -p cbr -e 512 -c 0 -i 44 -a 0 -x {1.0 3.1 22 ------- null}
h -t 0.71 -s 1 -d 2 -p cbr -e 512 -c 0 -i 44 -a 0 -x {1.0 3.1 -1 ------- null}
r -t 0.712048 -s 1 -d 2 -p cbr -e 512 -c 0 -i 42 -a 0 -x {1.0 3.1 20 ------- null}
+ -t 0.712048 -s 2 -d 3 -p cbr -e 512 -c 0 -i 42 -a 0 -x {1.0 3.1 20 ------- null}
+ -t 0.715 -s 1 -d 2 -p cbr -e 512 -c 0 -i 45 -a 0 -x {1.0 3.1 23 ------- null}
- -t 0.715 -s 1 -d 2 -p cbr -e 512 -c 0 -i 45 -a 0 -x {1.0 3.1 23 ------- null}
h -t 0.715 -s 1 -d 2 -p cbr -e 512 -c 0 -i 45 -a 0 -x {1.0 3.1 -1 ------- null}
r -t 0.715395555555555 -s 2 -d 3 -p tcp -e 1040 -c 0 -i 22 -a 0 -x {0.0 3.0 7 ------- null}
+ -t 0.715395555555555 -s 3 -d 2 -p ack -e 40 -c 0 -i 46 -a 0 -x {3.0 0.0 7 ------- null}
- -t 0.715395555555555 -s 3 -d 2 -p ack -e 40 -c 0 -i 46 -a 0 -x {3.0 0.0 7 ------- null}
h -t 0.715395555555555 -s 3 -d 2 -p ack -e 40 -c 0 -i 46 -a 0 -x {3.0 0.0 -1 ------- null}
r -t 0.717048 -s 1 -d 2 -p cbr -e 512 -c 0 -i 43 -a 0 -x {1.0 3.1 21 ------- null}
+ -t 0.717048 -s 2 -d 3 -p cbr -e 512 -c 0 -i 43 -a 0 -x {1.0 3.1 21 ------- null}
- -t 0.71919111111111 -s 2 -d 3 -p cbr -e 512 -c 0 -i 27 -a 0 -x {1.0 3.1 12 ------- null}
h -t 0.71919111111111 -s 2 -d 3 -p cbr -e 512 -c 0 -i 27 -a 0 -x {1.0 3.1 -1 ------- null}
r -t 0.719946666666666 -s 2 -d 3 -p cbr -e 512 -c 0 -i 25 -a 0 -x {1.0 3.1 11 ------- null}
+ -t 0.72 -s 1 -d 2 -p cbr -e 512 -c 0 -i 47 -a 0 -x {1.0 3.1 24 ------- null}
- -t 0.72 -s 1 -d 2 -p cbr -e 512 -c 0 -i 47 -a 0 -x {1.0 3.1 24 ------- null}
h -t 0.72 -s 1 -d 2 -p cbr -e 512 -c 0 -i 47 -a 0 -x {1.0 3.1 -1 ------- null}
r -t 0.722048 -s 1 -d 2 -p cbr -e 512 -c 0 -i 44 -a 0 -x {1.0 3.1 22 ------- null}
+ -t 0.722048 -s 2 -d 3 -p cbr -e 512 -c 0 -i 44 -a 0 -x {1.0 3.1 22 ------- null}
- -t 0.723742222222222 -s 2 -d 3 -p tcp -e 1040 -c 0 -i 28 -a 0 -x {0.0 3.0 9 ------- null}
h -t 0.723742222222222 -s 2 -d 3 -p tcp -e 1040 -c 0 -i 28 -a 0 -x {0.0 3.0 -1 ------- null}
+ -t 0.725 -s 1 -d 2 -p cbr -e 512 -c 0 -i 48 -a 0 -x {1.0 3.1 25 ------- null}
- -t 0.725 -s 1 -d 2 -p cbr -e 512 -c 0 -i 48 -a 0 -x {1.0 3.1 25 ------- null}
h -t 0.725 -s 1 -d 2 -p cbr -e 512 -c 0 -i 48 -a 0 -x {1.0 3.1 -1 ------- null}
r -t 0.72575111111111 -s 3 -d 2 -p ack -e 40 -c 0 -i 46 -a 0 -x {3.0 0.0 7 ------- null}
+ -t 0.72575111111111 -s 2 -d 0 -p ack -e 40 -c 0 -i 46 -a 0 -x {3.0 0.0 7 ------- null}
- -t 0.72575111111111 -s 2 -d 0 -p ack -e 40 -c 0 -i 46 -a 0 -x {3.0 0.0 7 ------- null}
h -t 0.72575111111111 -s 2 -d 0 -p ack -e 40 -c 0 -i 46 -a 0 -x {3.0 0.0 -1 ------- null}
r -t 0.727048 -s 1 -d 2 -p cbr -e 512 -c 0 -i 45 -a 0 -x {1.0 3.1 23 ------- null}
+ -t 0.727048 -s 2 -d 3 -p cbr -e 512 -c 0 -i 45 -a 0 -x {1.0 3.1 23 ------- null}
r -t 0.72919111111111 -s 2 -d 3 -p tcp -e 1040 -c 0 -i 23 -a 0 -x {0.0 3.0 8 ------- null}
+ -t 0.72919111111111 -s 3 -d 2 -p ack -e 40 -c 0 -i 49 -a 0 -x {3.0 0.0 8 ------- null}
- -t 0.72919111111111 -s 3 -d 2 -p ack -e 40 -c 0 -i 49 -a 0 -x {3.0 0.0 8 ------- null}
h -t 0.72919111111111 -s 3 -d 2 -p ack -e 40 -c 0 -i 49 -a 0 -x {3.0 0.0 -1 ------- null}
+ -t 0.73 -s 1 -d 2 -p cbr -e 512 -c 0 -i 50 -a 0 -x {1.0 3.1 26 ------- null}
- -t 0.73 -s 1 -d 2 -p cbr -e 512 -c 0 -i 50 -a 0 -x {1.0 3.1 26 ------- null}
h -t 0.73 -s 1 -d 2 -p cbr -e 512 -c 0 -i 50 -a 0 -x {1.0 3.1 -1 ------- null}
r -t 0.732048 -s 1 -d 2 -p cbr -e 512 -c 0 -i 47 -a 0 -x {1.0 3.1 24 ------- null}
+ -t 0.732048 -s 2 -d 3 -p cbr -e 512 -c 0 -i 47 -a 0 -x {1.0 3.1 24 ------- null}
- -t 0.732986666666666 -s 2 -d 3 -p cbr -e 512 -c 0 -i 30 -a 0 -x {1.0 3.1 13 ------- null}