+ 0.5 0 2 tcp 40 ------- 0 0.0 3.0 0 0
- 0.5 0 2 tcp 40 ------- 0 0.0 3.0 0 0
r 0.51016 0 2 tcp 40 ------- 0 0.0 3.0 0 0
+ 0.51016 2 3 tcp 40 ------- 0 0.0 3.0 0 0
- 0.51016 2 3 tcp 40 ------- 0 0.0 3.0 0 0
r 0.520516 2 3 tcp 40 ------- 0 0.0 3.0 0 0
+ 0.520516 3 2 ack 40 ------- 0 3.0 0.0 0 1
- 0.520516 3 2 ack 40 ------- 0 3.0 0.0 0 1
r 0.530871 3 2 ack 40 ------- 0 3.0 0.0 0 1
+ 0.530871 2 0 ack 40 ------- 0 3.0 0.0 0 1
- 0.530871 2 0 ack 40 ------- 0 3.0 0.0 0 1
r 0.541031 2 0 ack 40 ------- 0 3.0 0.0 0 1
+ 0.541031 0 2 tcp 1040 ------- 0 0.0 3.0 1 2
- 0.541031 0 2 tcp 1040 ------- 0 0.0 3.0 1 2
+ 0.541031 0 2 tcp 1040 ------- 0 0.0 3.0 2 3
- 0.545191 0 2 tcp 1040 ------- 0 0.0 3.0 2 3
r 0.555191 0 2 tcp 1040 ------- 0 0.0 3.0 1 2
+ 0.555191 2 3 tcp 1040 ------- 0 0.0 3.0 1 2
- 0.555191 2 3 tcp 1040 ------- 0 0.0 3.0 1 2
r 0.559351 0 2 tcp 1040 ------- 0 0.0 3.0 2 3
+ 0.559351 2 3 tcp 1040 ------- 0 0.0 3.0 2 3
- 0.564436 2 3 tcp 1040 ------- 0 0.0 3.0 2 3
r 0.574436 2 3 tcp 1040 ------- 0 0.0 3.0 1 2
+ 0.574436 3 2 ack 40 ------- 0 3.0 0.0 1 4
- 0.574436 3 2 ack 40 ------- 0 3.0 0.0 1 4
r 0.58368 2 3 tcp 1040 ------- 0 0.0 3.0 2 3
+ 0.58368 3 2 ack 40 ------- 0 3.0 0.0 2 5
- 0.58368 3 2 ack 40 ------- 0 3.0 0.0 2 5
r 0.584791 3 2 ack 40 ------- 0 3.0 0.0 1 4
+ 0.584791 2 0 ack 40 ------- 0 3.0 0.0 1 4
- 0.584791 2 0 ack 40 ------- 0 3.0 0.0 1 4
r 0.594036 3 2 ack 40 ------- 0 3.0 0.0 2 5
+ 0.594036 2 0 ack 40 ------- 0 3.0 0.0 2 5
- 0.594036 2 0 ack 40 ------- 0 3.0 0.0 2 5
r 0.594951 2 0 ack 40 ------- 0 3.0 0.0 1 4
+ 0.594951 0 2 tcp 1040 ------- 0 0.0 3.0 3 6
- 0.594951 0 2 tcp 1040 ------- 0 0.0 3.0 3 6
+ 0.594951 0 2 tcp 1040 ------- 0 0.0 3.0 4 7
- 0.599111 0 2 tcp 1040 ------- 0 0.0 3.0 4 7
+ 0.6 1 2 cbr 512 ------- 0 1.0 3.1 0 8
- 0.6 1 2 cbr 512 ------- 0 1.0 3.1 0 8
r 0.604196 2 0 ack 40 ------- 0 3.0 0.0 2 5
+ 0.604196 0 2 tcp 1040 ------- 0 0.0 3.0 5 9
- 0.604196 0 2 tcp 1040 ------- 0 0.0 3.0 5 9
+ 0.604196 0 2 tcp 1040 ------- 0 0.0 3.0 6 10
+ 0.605 1 2 cbr 512 ------- 0 1.0 3.1 1 11
- 0.605 1 2 cbr 512 ------- 0 1.0 3.1 1 11
- 0.608356 0 2 tcp 1040 ------- 0 0.0 3.0 6 10
r 0.609111 0 2 tcp 1040 ------- 0 0.0 3.0 3 6
+ 0.609111 2 3 tcp 1040 ------- 0 0.0 3.0 3 6
- 0.609111 2 3 tcp 1040 ------- 0 0.0 3.0 3 6
+ 0.61 1 2 cbr 512 ------- 0 1.0 3.1 2 12
- 0.61 1 2 cbr 512 ------- 0 1.0 3.1 2 12
r 0.612048 1 2 cbr 512 ------- 0 1.0 3.1 0 8
+ 0.612048 2 3 cbr 512 ------- 0 1.0 3.1 0 8
r 0.613271 0 2 tcp 1040 ------- 0 0.0 3.0 4 7
+ 0.613271 2 3 tcp 1040 ------- 0 0.0 3.0 4 7
+ 0.615 1 2 cbr 512 ------- 0 1.0 3.1 3 13
- 0.615 1 2 cbr 512 ------- 0 1.0 3.1 3 13
r 0.617048 1 2 cbr 512 ------- 0 1.0 3.1 1 11
+ 0.617048 2 3 cbr 512 ------- 0 1.0 3.1 1 11
r 0.618356 0 2 tcp 1040 ------- 0 0.0 3.0 5 9
+ 0.618356 2 3 tcp 1040 ------- 0 0.0 3.0 5 9
- 0.618356 2 3 cbr 512 ------- 0 1.0 3.1 0 8
+ 0.62 1 2 cbr 512 ------- 0 1.0 3.1 4 14
- 0.62 1 2 cbr 512 ------- 0 1.0 3.1 4 14
r 0.622048 1 2 cbr 512 ------- 0 1.0 3.1 2 12
+ 0.622048 2 3 cbr 512 ------- 0 1.0 3.1 2 12
r 0.622516 0 2 tcp 1040 ------- 0 0.0 3.0 6 10
+ 0.622516 2 3 tcp 1040 ------- 0 0.0 3.0 6 10
- 0.622907 2 3 tcp 1040 ------- 0 0.0 3.0 4 7
+ 0.625 1 2 cbr 512 ------- 0 1.0 3.1 5 15
- 0.625 1 2 cbr 512 ------- 0 1.0 3.1 5 15
r 0.627048 1 2 cbr 512 ------- 0 1.0 3.1 3 13
+ 0.627048 2 3 cbr 512 ------- 0 1.0 3.1 3 13
r 0.628356 2 3 tcp 1040 ------- 0 0.0 3.0 3 6
+ 0.628356 3 2 ack 40 ------- 0 3.0 0.0 3 16
- 0.628356 3 2 ack 40 ------- 0 3.0 0.0 3 16
+ 0.63 1 2 cbr 512 ------- 0 1.0 3.1 6 17
- 0.63 1 2 cbr 512 ------- 0 1.0 3.1 6 17
r 0.632048 1 2 cbr 512 ------- 0 1.0 3.1 4 14
+ 0.632048 2 3 cbr 512 ------- 0 1.0 3.1 4 14
- 0.632151 2 3 cbr 512 ------- 0 1.0 3.1 1 11
r 0.632907 2 3 cbr 512 ------- 0 1.0 3.1 0 8
+ 0.635 1 2 cbr 512 ------- 0 1.0 3.1 7 18
- 0.635 1 2 cbr 512 ------- 0 1.0 3.1 7 18
- 0.636702 2 3 tcp 1040 ------- 0 0.0 3.0 5 9
r 0.637048 1 2 cbr 512 ------- 0 1.0 3.1 5 15
+ 0.637048 2 3 cbr 512 ------- 0 1.0 3.1 5 15
r 0.638711 3 2 ack 40 ------- 0 3.0 0.0 3 16
+ 0.638711 2 0 ack 40 ------- 0 3.0 0.0 3 16
- 0.638711 2 0 ack 40 ------- 0 3.0 0.0 3 16
+ 0.64 1 2 cbr 512 ------- 0 1.0 3.1 8 19
- 0.64 1 2 cbr 512 ------- 0 1.0 3.1 8 19
r 0.642048 1 2 cbr 512 ------- 0 1.0 3.1 6 17
+ 0.642048 2 3 cbr 512 ------- 0 1.0 3.1 6 17
r 0.642151 2 3 tcp 1040 ------- 0 0.0 3.0 4 7
+ 0.642151 3 2 ack 40 ------- 0 3.0 0.0 4 20
- 0.642151 3 2 ack 40 ------- 0 3.0 0.0 4 20
+ 0.645 1 2 cbr 512 ------- 0 1.0 3.1 9 21
- 0.645 1 2 cbr 512 ------- 0 1.0 3.1 9 21
- 0.645947 2 3 cbr 512 ------- 0 1.0 3.1 2 12
r 0.646702 2 3 cbr 512 ------- 0 1.0 3.1 1 11
r 0.647048 1 2 cbr 512 ------- 0 1.0 3.1 7 18
+ 0.647048 2 3 cbr 512 ------- 0 1.0 3.1 7 18
r 0.648871 2 0 ack 40 ------- 0 3.0 0.0 3 16
+ 0.648871 0 2 tcp 1040 ------- 0 0.0 3.0 7 22
- 0.648871 0 2 tcp 1040 ------- 0 0.0 3.0 7 22
+ 0.648871 0 2 tcp 1040 ------- 0 0.0 3.0 8 23
+ 0.65 1 2 cbr 512 ------- 0 1.0 3.1 10 24
- 0.65 1 2 cbr 512 ------- 0 1.0 3.1 10 24
- 0.650498 2 3 tcp 1040 ------- 0 0.0 3.0 6 10
r 0.652048 1 2 cbr 512 ------- 0 1.0 3.1 8 19
+ 0.652048 2 3 cbr 512 ------- 0 1.0 3.1 8 19
r 0.652507 3 2 ack 40 ------- 0 3.0 0.0 4 20
+ 0.652507 2 0 ack 40 ------- 0 3.0 0.0 4 20
- 0.652507 2 0 ack 40 ------- 0 3.0 0.0 4 20
- 0.653031 0 2 tcp 1040 ------- 0 0.0 3.0 8 23
+ 0.655 1 2 cbr 512 ------- 0 1.0 3.1 11 25
- 0.655 1 2 cbr 512 ------- 0 1.0 3.1 11 25
r 0.655947 2 3 tcp 1040 ------- 0 0.0 3.0 5 9
+ 0.655947 3 2 ack 40 ------- 0 3.0 0.0 5 26
- 0.655947 3 2 ack 40 ------- 0 3.0 0.0 5 26
r 0.657048 1 2 cbr 512 ------- 0 1.0 3.1 9 21
+ 0.657048 2 3 cbr 512 ------- 0 1.0 3.1 9 21
- 0.659742 2 3 cbr 512 ------- 0 1.0 3.1 3 13
+ 0.66 1 2 cbr 512 ------- 0 1.0 3.1 12 27
- 0.66 1 2 cbr 512 ------- 0 1.0 3.1 12 27
r 0.660498 2 3 cbr 512 ------- 0 1.0 3.1 2 12
r 0.662048 1 2 cbr 512 ------- 0 1.0 3.1 10 24
+ 0.662048 2 3 cbr 512 ------- 0 1.0 3.1 10 24
r 0.662667 2 0 ack 40 ------- 0 3.0 0.0 4 20
+ 0.662667 0 2 tcp 1040 ------- 0 0.0 3.0 9 28
- 0.662667 0 2 tcp 1040 ------- 0 0.0 3.0 9 28
+ 0.662667 0 2 tcp 1040 ------- 0 0.0 3.0 10 29
r 0.663031 0 2 tcp 1040 ------- 0 0.0 3.0 7 22
+ 0.663031 2 3 tcp 1040 ------- 0 0.0 3.0 7 22
- 0.664293 2 3 cbr 512 ------- 0 1.0 3.1 4 14
+ 0.665 1 2 cbr 512 ------- 0 1.0 3.1 13 30
- 0.665 1 2 cbr 512 ------- 0 1.0 3.1 13 30
r 0.666302 3 2 ack 40 ------- 0 3.0 0.0 5 26
+ 0.666302 2 0 ack 40 ------- 0 3.0 0.0 5 26
- 0.666302 2 0 ack 40 ------- 0 3.0 0.0 5 26
- 0.666827 0 2 tcp 1040 ------- 0 0.0 3.0 10 29
r 0.667048 1 2 cbr 512 ------- 0 1.0 3.1 11 25
+ 0.667048 2 3 cbr 512 ------- 0 1.0 3.1 11 25
r 0.667191 0 2 tcp 1040 ------- 0 0.0 3.0 8 23
+ 0.667191 2 3 tcp 1040 ------- 0 0.0 3.0 8 23
- 0.668844 2 3 cbr 512 ------- 0 1.0 3.1 5 15
r 0.669742 2 3 tcp 1040 ------- 0 0.0 3.0 6 10
+ 0.669742 3 2 ack 40 ------- 0 3.0 0.0 6 31
- 0.669742 3 2 ack 40 ------- 0 3.0 0.0 6 31
+ 0.67 1 2 cbr 512 ------- 0 1.0 3.1 14 32
- 0.67 1 2 cbr 512 ------- 0 1.0 3.1 14 32
r 0.672048 1 2 cbr 512 ------- 0 1.0 3.1 12 27
+ 0.672048 2 3 cbr 512 ------- 0 1.0 3.1 12 27
- 0.673396 2 3 cbr 512 ------- 0 1.0 3.1 6 17
r 0.674293 2 3 cbr 512 ------- 0 1.0 3.1 3 13
+ 0.675 1 2 cbr 512 ------- 0 1.0 3.1 15 33
- 0.675 1 2 cbr 512 ------- 0 1.0 3.1 15 33
r 0.676462 2 0 ack 40 ------- 0 3.0 0.0 5 26
+ 0.676462 0 2 tcp 1040 ------- 0 0.0 3.0 11 34
- 0.676462 0 2 tcp 1040 ------- 0 0.0 3.0 11 34
+ 0.676462 0 2 tcp 1040 ------- 0 0.0 3.0 12 35
r 0.676827 0 2 tcp 1040 ------- 0 0.0 3.0 9 28
+ 0.676827 2 3 tcp 1040 ------- 0 0.0 3.0 9 28
r 0.677048 1 2 cbr 512 ------- 0 1.0 3.1 13 30
+ 0.677048 2 3 cbr 512 ------- 0 1.0 3.1 13 30
- 0.677947 2 3 cbr 512 ------- 0 1.0 3.1 7 18
r 0.678844 2 3 cbr 512 ------- 0 1.0 3.1 4 14
+ 0.68 1 2 cbr 512 ------- 0 1.0 3.1 16 36
- 0.68 1 2 cbr 512 ------- 0 1.0 3.1 16 36
r 0.680098 3 2 ack 40 ------- 0 3.0 0.0 6 31
+ 0.680098 2 0 ack 40 ------- 0 3.0 0.0 6 31
- 0.680098 2 0 ack 40 ------- 0 3.0 0.0 6 31
- 0.680622 0 2 tcp 1040 ------- 0 0.0 3.0 12 35
r 0.680987 0 2 tcp 1040 ------- 0 0.0 3.0 10 29
+ 0.680987 2 3 tcp 1040 ------- 0 0.0 3.0 10 29
r 0.682048 1 2 cbr 512 ------- 0 1.0 3.1 14 32
+ 0.682048 2 3 cbr 512 ------- 0 1.0 3.1 14 32
- 0.682498 2 3 cbr 512 ------- 0 1.0 3.1 8 19
r 0.683396 2 3 cbr 512 ------- 0 1.0 3.1 5 15
+ 0.685 1 2 cbr 512 ------- 0 1.0 3.1 17 37
- 0.685 1 2 cbr 512 ------- 0 1.0 3.1 17 37
r 0.687048 1 2 cbr 512 ------- 0 1.0 3.1 15 33
+ 0.687048 2 3 cbr 512 ------- 0 1.0 3.1 15 33
- 0.687049 2 3 cbr 512 ------- 0 1.0 3.1 9 21
r 0.687947 2 3 cbr 512 ------- 0 1.0 3.1 6 17
+ 0.69 1 2 cbr 512 ------- 0 1.0 3.1 18 38
- 0.69 1 2 cbr 512 ------- 0 1.0 3.1 18 38
r 0.690258 2 0 ack 40 ------- 0 3.0 0.0 6 31
+ 0.690258 0 2 tcp 1040 ------- 0 0.0 3.0 13 39
- 0.690258 0 2 tcp 1040 ------- 0 0.0 3.0 13 39
+ 0.690258 0 2 tcp 1040 ------- 0 0.0 3.0 14 40
r 0.690622 0 2 tcp 1040 ------- 0 0.0 3.0 11 34
+ 0.690622 2 3 tcp 1040 ------- 0 0.0 3.0 11 34
- 0.6916 2 3 cbr 512 ------- 0 1.0 3.1 10 24
r 0.692048 1 2 cbr 512 ------- 0 1.0 3.1 16 36
+ 0.692048 2 3 cbr 512 ------- 0 1.0 3.1 16 36
r 0.692498 2 3 cbr 512 ------- 0 1.0 3.1 7 18
- 0.694418 0 2 tcp 1040 ------- 0 0.0 3.0 14 40
r 0.694782 0 2 tcp 1040 ------- 0 0.0 3.0 12 35
+ 0.694782 2 3 tcp 1040 ------- 0 0.0 3.0 12 35
+ 0.695 1 2 cbr 512 ------- 0 1.0 3.1 19 41
- 0.695 1 2 cbr 512 ------- 0 1.0 3.1 19 41
- 0.696151 2 3 tcp 1040 ------- 0 0.0 3.0 7 22
r 0.697048 1 2 cbr 512 ------- 0 1.0 3.1 17 37
+ 0.697048 2 3 cbr 512 ------- 0 1.0 3.1 17 37
r 0.697049 2 3 cbr 512 ------- 0 1.0 3.1 8 19
+ 0.7 1 2 cbr 512 ------- 0 1.0 3.1 20 42
- 0.7 1 2 cbr 512 ------- 0 1.0 3.1 20 42
r 0.7016 2 3 cbr 512 ------- 0 1.0 3.1 9 21
r 0.702048 1 2 cbr 512 ------- 0 1.0 3.1 18 38
+ 0.702048 2 3 cbr 512 ------- 0 1.0 3.1 18 38
r 0.704418 0 2 tcp 1040 ------- 0 0.0 3.0 13 39
+ 0.704418 2 3 tcp 1040 ------- 0 0.0 3.0 13 39
+ 0.705 1 2 cbr 512 ------- 0 1.0 3.1 21 43
- 0.705 1 2 cbr 512 ------- 0 1.0 3.1 21 43
- 0.705396 2 3 cbr 512 ------- 0 1.0 3.1 11 25
r 0.706151 2 3 cbr 512 ------- 0 1.0 3.1 10 24
r 0.707048 1 2 cbr 512 ------- 0 1.0 3.1 19 41
+ 0.707048 2 3 cbr 512 ------- 0 1.0 3.1 19 41
r 0.708578 0 2 tcp 1040 ------- 0 0.0 3.0 14 40
+ 0.708578 2 3 tcp 1040 ------- 0 0.0 3.0 14 40
- 0.709947 2 3 tcp 1040 ------- 0 0.0 3.0 8 23
+ 0.71 1 2 cbr 512 ------- 0 1.0 3.1 22 44
- 0.71 1 2 cbr 512 ------- 0 1.0 3.1 22 44
r 0.712048 1 2 cbr 512 ------- 0 1.0 3.1 20 42
+ 0.712048 2 3 cbr 512 ------- 0 1.0 3.1 20 42
+ 0.715 1 2 cbr 512 ------- 0 1.0 3.1 23 45
- 0.715 1 2 cbr 512 ------- 0 1.0 3.1 23 45
r 0.715396 2 3 tcp 1040 ------- 0 0.0 3.0 7 22
+ 0.715396 3 2 ack 40 ------- 0 3.0 0.0 7 46
- 0.715396 3 2 ack 40 ------- 0 3.0 0.0 7 46
r 0.717048 1 2 cbr 512 ------- 0 1.0 3.1 21 43
+ 0.717048 2 3 cbr 512 ------- 0 1.0 3.1 21 43
- 0.719191 2 3 cbr 512 ------- 0 1.0 3.1 12 27
r 0.719947 2 3 cbr 512 ------- 0 1.0 3.1 11 25
+ 0.72 1 2 cbr 512 ------- 0 1.0 3.1 24 47
- 0.72 1 2 cbr 512 ------- 0 1.0 3.1 24 47
r 0.722048 1 2 cbr 512 ------- 0 1.0 3.1 22 44
+ 0.722048 2 3 cbr 512 ------- 0 1.0 3.1 22 44
- 0.723742 2 3 tcp 1040 ------- 0 0.0 3.0 9 28
+ 0.725 1 2 cbr 512 ------- 0 1.0 3.1 25 48
- 0.725 1 2 cbr 512 ------- 0 1.0 3.1 25 48
r 0.725751 3 2 ack 40 ------- 0 3.0 0.0 7 46
+ 0.725751 2 0 ack 40 ------- 0 3.0 0.0 7 46
- 0.725751 2 0 ack 40 ------- 0 3.0 0.0 7 46
r 0.727048 1 2 cbr 512 ------- 0 1.0 3.1 23 45
+ 0.727048 2 3 cbr 512 ------- 0 1.0 3.1 23 45
r 0.729191 2 3 tcp 1040 ------- 0 0.0 3.0 8 23
+ 0.729191 3 2 ack 40 ------- 0 3.0 0.0 8 49
- 0.729191 3 2 ack 40 ------- 0 3.0 0.0 8 49
+ 0.73 1 2 cbr 512 ------- 0 1.0 3.1 26 50
- 0.73 1 2 cbr 512 ------- 0 1.0 3.1 26 50
r 0.732048 1 2 cbr 512 ------- 0 1.0 3.1 24 47
+ 0.732048 2 3 cbr 512 ------- 0 1.0 3.1 24 47
- 0.732987 2 3 cbr 512 ------- 0 1.0 3.1 13 30
r 0.733742 2 3 cbr 512 ------- 0 1.0 3.1 12 27
+ 0.735 1 2 cbr 512 ------- 0 1.0 3.1 27 51
- 0.735 1 2 cbr 512 ------- 0 1.0 3.1 27 51
r 0.735911 2 0 ack 40 ------- 0 3.0 0.0 7 46
+ 0.735911 0 2 tcp 1040 ------- 0 0.0 3.0 15 52
- 0.735911 0 2 tcp 1040 ------- 0 0.0 3.0 15 52
+ 0.735911 0 2 tcp 1040 ------- 0 0.0 3.0 16 53
r 0.737048 1 2 cbr 512 ------- 0 1.0 3.1 25 48
+ 0.737048 2 3 cbr 512 ------- 0 1.0 3.1 25 48
- 0.737538 2 3 tcp 1040 ------- 0 0.0 3.0 10 29
r 0.739547 3 2 ack 40 ------- 0 3.0 0.0 8 49
+ 0.739547 2 0 ack 40 ------- 0 3.0 0.0 8 49
- 0.739547 2 0 ack 40 ------- 0 3.0 0.0 8 49
+ 0.74 1 2 cbr 512 ------- 0 1.0 3.1 28 54
- 0.74 1 2 cbr 512 ------- 0 1.0 3.1 28 54
- 0.740071 0 2 tcp 1040 ------- 0 0.0 3.0 16 53
r 0.742048 1 2 cbr 512 ------- 0 1.0 3.1 26 50
+ 0.742048 2 3 cbr 512 ------- 0 1.0 3.1 26 50
r 0.742987 2 3 tcp 1040 ------- 0 0.0 3.0 9 28
+ 0.742987 3 2 ack 40 ------- 0 3.0 0.0 9 55
- 0.742987 3 2 ack 40 ------- 0 3.0 0.0 9 55
+ 0.745 1 2 cbr 512 ------- 0 1.0 3.1 29 56
- 0.745 1 2 cbr 512 ------- 0 1.0 3.1 29 56
- 0.746782 2 3 cbr 512 ------- 0 1.0 3.1 14 32
r 0.747048 1 2 cbr 512 ------- 0 1.0 3.1 27 51
+ 0.747048 2 3 cbr 512 ------- 0 1.0 3.1 27 51
r 0.747538 2 3 cbr 512 ------- 0 1.0 3.1 13 30
r 0.749707 2 0 ack 40 ------- 0 3.0 0.0 8 49
+ 0.749707 0 2 tcp 1040 ------- 0 0.0 3.0 17 57
- 0.749707 0 2 tcp 1040 ------- 0 0.0 3.0 17 57
+ 0.749707 0 2 tcp 1040 ------- 0 0.0 3.0 18 58
+ 0.75 1 2 cbr 512 ------- 0 1.0 3.1 30 59
- 0.75 1 2 cbr 512 ------- 0 1.0 3.1 30 59
r 0.750071 0 2 tcp 1040 ------- 0 0.0 3.0 15 52
+ 0.750071 2 3 tcp 1040 ------- 0 0.0 3.0 15 52
- 0.751333 2 3 cbr 512 ------- 0 1.0 3.1 15 33
r 0.752048 1 2 cbr 512 ------- 0 1.0 3.1 28 54
+ 0.752048 2 3 cbr 512 ------- 0 1.0 3.1 28 54
r 0.753342 3 2 ack 40 ------- 0 3.0 0.0 9 55
+ 0.753342 2 0 ack 40 ------- 0 3.0 0.0 9 55
- 0.753342 2 0 ack 40 ------- 0 3.0 0.0 9 55
- 0.753867 0 2 tcp 1040 ------- 0 0.0 3.0 18 58
r 0.754231 0 2 tcp 1040 ------- 0 0.0 3.0 16 53
+ 0.754231 2 3 tcp 1040 ------- 0 0.0 3.0 16 53
+ 0.755 1 2 cbr 512 ------- 0 1.0 3.1 31 60
- 0.755 1 2 cbr 512 ------- 0 1.0 3.1 31 60
- 0.755884 2 3 tcp 1040 ------- 0 0.0 3.0 11 34
r 0.756782 2 3 tcp 1040 ------- 0 0.0 3.0 10 29
+ 0.756782 3 2 ack 40 ------- 0 3.0 0.0 10 61
- 0.756782 3 2 ack 40 ------- 0 3.0 0.0 10 61
r 0.757048 1 2 cbr 512 ------- 0 1.0 3.1 29 56
+ 0.757048 2 3 cbr 512 ------- 0 1.0 3.1 29 56
+ 0.76 1 2 cbr 512 ------- 0 1.0 3.1 32 62
- 0.76 1 2 cbr 512 ------- 0 1.0 3.1 32 62
r 0.761333 2 3 cbr 512 ------- 0 1.0 3.1 14 32
r 0.762048 1 2 cbr 512 ------- 0 1.0 3.1 30 59
+ 0.762048 2 3 cbr 512 ------- 0 1.0 3.1 30 59
r 0.763502 2 0 ack 40 ------- 0 3.0 0.0 9 55
+ 0.763502 0 2 tcp 1040 ------- 0 0.0 3.0 19 63
- 0.763502 0 2 tcp 1040 ------- 0 0.0 3.0 19 63
+ 0.763502 0 2 tcp 1040 ------- 0 0.0 3.0 20 64
r 0.763867 0 2 tcp 1040 ------- 0 0.0 3.0 17 57
+ 0.763867 2 3 tcp 1040 ------- 0 0.0 3.0 17 57
+ 0.765 1 2 cbr 512 ------- 0 1.0 3.1 33 65
- 0.765 1 2 cbr 512 ------- 0 1.0 3.1 33 65
- 0.765129 2 3 cbr 512 ------- 0 1.0 3.1 16 36
r 0.765884 2 3 cbr 512 ------- 0 1.0 3.1 15 33
r 0.767048 1 2 cbr 512 ------- 0 1.0 3.1 31 60
+ 0.767048 2 3 cbr 512 ------- 0 1.0 3.1 31 60
r 0.767138 3 2 ack 40 ------- 0 3.0 0.0 10 61
+ 0.767138 2 0 ack 40 ------- 0 3.0 0.0 10 61
- 0.767138 2 0 ack 40 ------- 0 3.0 0.0 10 61
- 0.767662 0 2 tcp 1040 ------- 0 0.0 3.0 20 64
r 0.768027 0 2 tcp 1040 ------- 0 0.0 3.0 18 58
+ 0.768027 2 3 tcp 1040 ------- 0 0.0 3.0 18 58
- 0.76968 2 3 tcp 1040 ------- 0 0.0 3.0 12 35
+ 0.77 1 2 cbr 512 ------- 0 1.0 3.1 34 66
- 0.77 1 2 cbr 512 ------- 0 1.0 3.1 34 66
r 0.772048 1 2 cbr 512 ------- 0 1.0 3.1 32 62
+ 0.772048 2 3 cbr 512 ------- 0 1.0 3.1 32 62
+ 0.775 1 2 cbr 512 ------- 0 1.0 3.1 35 67
- 0.775 1 2 cbr 512 ------- 0 1.0 3.1 35 67
r 0.775129 2 3 tcp 1040 ------- 0 0.0 3.0 11 34
+ 0.775129 3 2 ack 40 ------- 0 3.0 0.0 11 68
- 0.775129 3 2 ack 40 ------- 0 3.0 0.0 11 68
r 0.777048 1 2 cbr 512 ------- 0 1.0 3.1 33 65
+ 0.777048 2 3 cbr 512 ------- 0 1.0 3.1 33 65
r 0.777298 2 0 ack 40 ------- 0 3.0 0.0 10 61
+ 0.777298 0 2 tcp 1040 ------- 0 0.0 3.0 21 69
- 0.777298 0 2 tcp 1040 ------- 0 0.0 3.0 21 69
+ 0.777298 0 2 tcp 1040 ------- 0 0.0 3.0 22 70
r 0.777662 0 2 tcp 1040 ------- 0 0.0 3.0 19 63
+ 0.777662 2 3 tcp 1040 ------- 0 0.0 3.0 19 63
- 0.778924 2 3 cbr 512 ------- 0 1.0 3.1 17 37
r 0.77968 2 3 cbr 512 ------- 0 1.0 3.1 16 36
+ 0.78 1 2 cbr 512 ------- 0 1.0 3.1 36 71
- 0.78 1 2 cbr 512 ------- 0 1.0 3.1 36 71
- 0.781458 0 2 tcp 1040 ------- 0 0.0 3.0 22 70
r 0.781822 0 2 tcp 1040 ------- 0 0.0 3.0 20 64
+ 0.781822 2 3 tcp 1040 ------- 0 0.0 3.0 20 64
r 0.782048 1 2 cbr 512 ------- 0 1.0 3.1 34 66
+ 0.782048 2 3 cbr 512 ------- 0 1.0 3.1 34 66
- 0.783476 2 3 cbr 512 ------- 0 1.0 3.1 18 38
+ 0.785 1 2 cbr 512 ------- 0 1.0 3.1 37 72
- 0.785 1 2 cbr 512 ------- 0 1.0 3.1 37 72
r 0.785484 3 2 ack 40 ------- 0 3.0 0.0 11 68
+ 0.785484 2 0 ack 40 ------- 0 3.0 0.0 11 68
- 0.785484 2 0 ack 40 ------- 0 3.0 0.0 11 68
r 0.787048 1 2 cbr 512 ------- 0 1.0 3.1 35 67
+ 0.787048 2 3 cbr 512 ------- 0 1.0 3.1 35 67
- 0.788027 2 3 tcp 1040 ------- 0 0.0 3.0 13 39
r 0.788924 2 3 tcp 1040 ------- 0 0.0 3.0 12 35
+ 0.788924 3 2 ack 40 ------- 0 3.0 0.0 12 73
- 0.788924 3 2 ack 40 ------- 0 3.0 0.0 12 73
+ 0.79 1 2 cbr 512 ------- 0 1.0 3.1 38 74
- 0.79 1 2 cbr 512 ------- 0 1.0 3.1 38 74
r 0.791458 0 2 tcp 1040 ------- 0 0.0 3.0 21 69
+ 0.791458 2 3 tcp 1040 ------- 0 0.0 3.0 21 69
r 0.792048 1 2 cbr 512 ------- 0 1.0 3.1 36 71
+ 0.792048 2 3 cbr 512 ------- 0 1.0 3.1 36 71
r 0.793476 2 3 cbr 512 ------- 0 1.0 3.1 17 37
+ 0.795 1 2 cbr 512 ------- 0 1.0 3.1 39 75
- 0.795 1 2 cbr 512 ------- 0 1.0 3.1 39 75
r 0.795618 0 2 tcp 1040 ------- 0 0.0 3.0 22 70
+ 0.795618 2 3 tcp 1040 ------- 0 0.0 3.0 22 70
r 0.795644 2 0 ack 40 ------- 0 3.0 0.0 11 68
+ 0.795644 0 2 tcp 1040 ------- 0 0.0 3.0 23 76
- 0.795644 0 2 tcp 1040 ------- 0 0.0 3.0 23 76
+ 0.795644 0 2 tcp 1040 ------- 0 0.0 3.0 24 77
r 0.797048 1 2 cbr 512 ------- 0 1.0 3.1 37 72
+ 0.797048 2 3 cbr 512 ------- 0 1.0 3.1 37 72
- 0.797271 2 3 cbr 512 ------- 0 1.0 3.1 19 41
r 0.798027 2 3 cbr 512 ------- 0 1.0 3.1 18 38
r 0.79928 3 2 ack 40 ------- 0 3.0 0.0 12 73
+ 0.79928 2 0 ack 40 ------- 0 3.0 0.0 12 73
- 0.79928 2 0 ack 40 ------- 0 3.0 0.0 12 73
- 0.799804 0 2 tcp 1040 ------- 0 0.0 3.0 24 77
+ 0.8 1 2 cbr 512 ------- 0 1.0 3.1 40 78
- 0.8 1 2 cbr 512 ------- 0 1.0 3.1 40 78
- 0.801822 2 3 tcp 1040 ------- 0 0.0 3.0 14 40
r 0.802048 1 2 cbr 512 ------- 0 1.0 3.1 38 74
+ 0.802048 2 3 cbr 512 ------- 0 1.0 3.1 38 74
+ 0.805 1 2 cbr 512 ------- 0 1.0 3.1 41 79
- 0.805 1 2 cbr 512 ------- 0 1.0 3.1 41 79
r 0.807048 1 2 cbr 512 ------- 0 1.0 3.1 39 75
+ 0.807048 2 3 cbr 512 ------- 0 1.0 3.1 39 75
r 0.807271 2 3 tcp 1040 ------- 0 0.0 3.0 13 39
+ 0.807271 3 2 ack 40 ------- 0 3.0 0.0 13 80
- 0.807271 3 2 ack 40 ------- 0 3.0 0.0 13 80
r 0.80944 2 0 ack 40 ------- 0 3.0 0.0 12 73
+ 0.80944 0 2 tcp 1040 ------- 0 0.0 3.0 25 81
- 0.80944 0 2 tcp 1040 ------- 0 0.0 3.0 25 81
+ 0.80944 0 2 tcp 1040 ------- 0 0.0 3.0 26 82
r 0.809804 0 2 tcp 1040 ------- 0 0.0 3.0 23 76
+ 0.809804 2 3 tcp 1040 ------- 0 0.0 3.0 23 76
+ 0.81 1 2 cbr 512 ------- 0 1.0 3.1 42 83
- 0.81 1 2 cbr 512 ------- 0 1.0 3.1 42 83
- 0.811067 2 3 cbr 512 ------- 0 1.0 3.1 20 42
r 0.811822 2 3 cbr 512 ------- 0 1.0 3.1 19 41
r 0.812048 1 2 cbr 512 ------- 0 1.0 3.1 40 78
+ 0.812048 2 3 cbr 512 ------- 0 1.0 3.1 40 78
- 0.8136 0 2 tcp 1040 ------- 0 0.0 3.0 26 82
r 0.813964 0 2 tcp 1040 ------- 0 0.0 3.0 24 77
+ 0.813964 2 3 tcp 1040 ------- 0 0.0 3.0 24 77
+ 0.815 1 2 cbr 512 ------- 0 1.0 3.1 43 84
- 0.815 1 2 cbr 512 ------- 0 1.0 3.1 43 84
- 0.815618 2 3 cbr 512 ------- 0 1.0 3.1 21 43
r 0.817048 1 2 cbr 512 ------- 0 1.0 3.1 41 79
+ 0.817048 2 3 cbr 512 ------- 0 1.0 3.1 41 79
r 0.817627 3 2 ack 40 ------- 0 3.0 0.0 13 80
+ 0.817627 2 0 ack 40 ------- 0 3.0 0.0 13 80
- 0.817627 2 0 ack 40 ------- 0 3.0 0.0 13 80
+ 0.82 1 2 cbr 512 ------- 0 1.0 3.1 44 85
- 0.82 1 2 cbr 512 ------- 0 1.0 3.1 44 85
- 0.820169 2 3 cbr 512 ------- 0 1.0 3.1 22 44
r 0.821067 2 3 tcp 1040 ------- 0 0.0 3.0 14 40
+ 0.821067 3 2 ack 40 ------- 0 3.0 0.0 14 86
- 0.821067 3 2 ack 40 ------- 0 3.0 0.0 14 86
r 0.822048 1 2 cbr 512 ------- 0 1.0 3.1 42 83
+ 0.822048 2 3 cbr 512 ------- 0 1.0 3.1 42 83
r 0.8236 0 2 tcp 1040 ------- 0 0.0 3.0 25 81
+ 0.8236 2 3 tcp 1040 ------- 0 0.0 3.0 25 81
- 0.82472 2 3 cbr 512 ------- 0 1.0 3.1 23 45
+ 0.825 1 2 cbr 512 ------- 0 1.0 3.1 45 87
- 0.825 1 2 cbr 512 ------- 0 1.0 3.1 45 87
r 0.825618 2 3 cbr 512 ------- 0 1.0 3.1 20 42
r 0.827048 1 2 cbr 512 ------- 0 1.0 3.1 43 84
+ 0.827048 2 3 cbr 512 ------- 0 1.0 3.1 43 84
r 0.82776 0 2 tcp 1040 ------- 0 0.0 3.0 26 82
+ 0.82776 2 3 tcp 1040 ------- 0 0.0 3.0 26 82
r 0.827787 2 0 ack 40 ------- 0 3.0 0.0 13 80
+ 0.827787 0 2 tcp 1040 ------- 0 0.0 3.0 27 88
- 0.827787 0 2 tcp 1040 ------- 0 0.0 3.0 27 88
+ 0.827787 0 2 tcp 1040 ------- 0 0.0 3.0 28 89
- 0.829271 2 3 cbr 512 ------- 0 1.0 3.1 24 47
+ 0.83 1 2 cbr 512 ------- 0 1.0 3.1 46 90
- 0.83 1 2 cbr 512 ------- 0 1.0 3.1 46 90
r 0.830169 2 3 cbr 512 ------- 0 1.0 3.1 21 43
r 0.831422 3 2 ack 40 ------- 0 3.0 0.0 14 86
+ 0.831422 2 0 ack 40 ------- 0 3.0 0.0 14 86
- 0.831422 2 0 ack 40 ------- 0 3.0 0.0 14 86
- 0.831947 0 2 tcp 1040 ------- 0 0.0 3.0 28 89
r 0.832048 1 2 cbr 512 ------- 0 1.0 3.1 44 85
+ 0.832048 2 3 cbr 512 ------- 0 1.0 3.1 44 85
- 0.833822 2 3 cbr 512 ------- 0 1.0 3.1 25 48
r 0.83472 2 3 cbr 512 ------- 0 1.0 3.1 22 44
+ 0.835 1 2 cbr 512 ------- 0 1.0 3.1 47 91
- 0.835 1 2 cbr 512 ------- 0 1.0 3.1 47 91
r 0.837048 1 2 cbr 512 ------- 0 1.0 3.1 45 87
+ 0.837048 2 3 cbr 512 ------- 0 1.0 3.1 45 87
- 0.838373 2 3 cbr 512 ------- 0 1.0 3.1 26 50
r 0.839271 2 3 cbr 512 ------- 0 1.0 3.1 23 45
+ 0.84 1 2 cbr 512 ------- 0 1.0 3.1 48 92
- 0.84 1 2 cbr 512 ------- 0 1.0 3.1 48 92
r 0.841582 2 0 ack 40 ------- 0 3.0 0.0 14 86
+ 0.841582 0 2 tcp 1040 ------- 0 0.0 3.0 29 93
- 0.841582 0 2 tcp 1040 ------- 0 0.0 3.0 29 93
+ 0.841582 0 2 tcp 1040 ------- 0 0.0 3.0 30 94
r 0.841947 0 2 tcp 1040 ------- 0 0.0 3.0 27 88
+ 0.841947 2 3 tcp 1040 ------- 0 0.0 3.0 27 88
r 0.842048 1 2 cbr 512 ------- 0 1.0 3.1 46 90
+ 0.842048 2 3 cbr 512 ------- 0 1.0 3.1 46 90
- 0.842924 2 3 cbr 512 ------- 0 1.0 3.1 27 51
r 0.843822 2 3 cbr 512 ------- 0 1.0 3.1 24 47
+ 0.845 1 2 cbr 512 ------- 0 1.0 3.1 49 95
- 0.845 1 2 cbr 512 ------- 0 1.0 3.1 49 95
- 0.845742 0 2 tcp 1040 ------- 0 0.0 3.0 30 94
r 0.846107 0 2 tcp 1040 ------- 0 0.0 3.0 28 89
+ 0.846107 2 3 tcp 1040 ------- 0 0.0 3.0 28 89
r 0.847048 1 2 cbr 512 ------- 0 1.0 3.1 47 91
+ 0.847048 2 3 cbr 512 ------- 0 1.0 3.1 47 91
- 0.847476 2 3 tcp 1040 ------- 0 0.0 3.0 15 52
r 0.848373 2 3 cbr 512 ------- 0 1.0 3.1 25 48
+ 0.85 1 2 cbr 512 ------- 0 1.0 3.1 50 96
- 0.85 1 2 cbr 512 ------- 0 1.0 3.1 50 96
r 0.852048 1 2 cbr 512 ------- 0 1.0 3.1 48 92
+ 0.852048 2 3 cbr 512 ------- 0 1.0 3.1 48 92
r 0.852924 2 3 cbr 512 ------- 0 1.0 3.1 26 50
+ 0.855 1 2 cbr 512 ------- 0 1.0 3.1 51 97
- 0.855 1 2 cbr 512 ------- 0 1.0 3.1 51 97
r 0.855742 0 2 tcp 1040 ------- 0 0.0 3.0 29 93
+ 0.855742 2 3 tcp 1040 ------- 0 0.0 3.0 29 93
- 0.85672 2 3 cbr 512 ------- 0 1.0 3.1 28 54
r 0.857048 1 2 cbr 512 ------- 0 1.0 3.1 49 95
+ 0.857048 2 3 cbr 512 ------- 0 1.0 3.1 49 95
r 0.857476 2 3 cbr 512 ------- 0 1.0 3.1 27 51
r 0.859902 0 2 tcp 1040 ------- 0 0.0 3.0 30 94
+ 0.859902 2 3 tcp 1040 ------- 0 0.0 3.0 30 94
+ 0.86 1 2 cbr 512 ------- 0 1.0 3.1 52 98
- 0.86 1 2 cbr 512 ------- 0 1.0 3.1 52 98
- 0.861271 2 3 tcp 1040 ------- 0 0.0 3.0 16 53
r 0.862048 1 2 cbr 512 ------- 0 1.0 3.1 50 96
+ 0.862048 2 3 cbr 512 ------- 0 1.0 3.1 50 96
+ 0.865 1 2 cbr 512 ------- 0 1.0 3.1 53 99
- 0.865 1 2 cbr 512 ------- 0 1.0 3.1 53 99
r 0.86672 2 3 tcp 1040 ------- 0 0.0 3.0 15 52
+ 0.86672 3 2 ack 40 ------- 0 3.0 0.0 15 100
- 0.86672 3 2 ack 40 ------- 0 3.0 0.0 15 100
r 0.867048 1 2 cbr 512 ------- 0 1.0 3.1 51 97
+ 0.867048 2 3 cbr 512 ------- 0 1.0 3.1 51 97
+ 0.87 1 2 cbr 512 ------- 0 1.0 3.1 54 101
- 0.87 1 2 cbr 512 ------- 0 1.0 3.1 54 101
- 0.870516 2 3 cbr 512 ------- 0 1.0 3.1 29 56
r 0.871271 2 3 cbr 512 ------- 0 1.0 3.1 28 54
r 0.872048 1 2 cbr 512 ------- 0 1.0 3.1 52 98
+ 0.872048 2 3 cbr 512 ------- 0 1.0 3.1 52 98
+ 0.875 1 2 cbr 512 ------- 0 1.0 3.1 55 102
- 0.875 1 2 cbr 512 ------- 0 1.0 3.1 55 102
- 0.875067 2 3 cbr 512 ------- 0 1.0 3.1 30 59
r 0.877048 1 2 cbr 512 ------- 0 1.0 3.1 53 99
+ 0.877048 2 3 cbr 512 ------- 0 1.0 3.1 53 99
r 0.877076 3 2 ack 40 ------- 0 3.0 0.0 15 100
+ 0.877076 2 0 ack 40 ------- 0 3.0 0.0 15 100
- 0.877076 2 0 ack 40 ------- 0 3.0 0.0 15 100
- 0.879618 2 3 tcp 1040 ------- 0 0.0 3.0 17 57
+ 0.88 1 2 cbr 512 ------- 0 1.0 3.1 56 103
- 0.88 1 2 cbr 512 ------- 0 1.0 3.1 56 103
r 0.880516 2 3 tcp 1040 ------- 0 0.0 3.0 16 53
+ 0.880516 3 2 ack 40 ------- 0 3.0 0.0 16 104
- 0.880516 3 2 ack 40 ------- 0 3.0 0.0 16 104
r 0.882048 1 2 cbr 512 ------- 0 1.0 3.1 54 101
+ 0.882048 2 3 cbr 512 ------- 0 1.0 3.1 54 101
+ 0.885 1 2 cbr 512 ------- 0 1.0 3.1 57 105
- 0.885 1 2 cbr 512 ------- 0 1.0 3.1 57 105
r 0.885067 2 3 cbr 512 ------- 0 1.0 3.1 29 56
r 0.887048 1 2 cbr 512 ------- 0 1.0 3.1 55 102
+ 0.887048 2 3 cbr 512 ------- 0 1.0 3.1 55 102
r 0.887236 2 0 ack 40 ------- 0 3.0 0.0 15 100
+ 0.887236 0 2 tcp 1040 ------- 0 0.0 3.0 31 106
- 0.887236 0 2 tcp 1040 ------- 0 0.0 3.0 31 106
+ 0.887236 0 2 tcp 1040 ------- 0 0.0 3.0 32 107
- 0.888862 2 3 cbr 512 ------- 0 1.0 3.1 31 60
r 0.889618 2 3 cbr 512 ------- 0 1.0 3.1 30 59
+ 0.89 1 2 cbr 512 ------- 0 1.0 3.1 58 108
- 0.89 1 2 cbr 512 ------- 0 1.0 3.1 58 108
r 0.890871 3 2 ack 40 ------- 0 3.0 0.0 16 104
+ 0.890871 2 0 ack 40 ------- 0 3.0 0.0 16 104
- 0.890871 2 0 ack 40 ------- 0 3.0 0.0 16 104
- 0.891396 0 2 tcp 1040 ------- 0 0.0 3.0 32 107
r 0.892048 1 2 cbr 512 ------- 0 1.0 3.1 56 103
+ 0.892048 2 3 cbr 512 ------- 0 1.0 3.1 56 103
- 0.893413 2 3 tcp 1040 ------- 0 0.0 3.0 18 58
+ 0.895 1 2 cbr 512 ------- 0 1.0 3.1 59 109
- 0.895 1 2 cbr 512 ------- 0 1.0 3.1 59 109
r 0.897048 1 2 cbr 512 ------- 0 1.0 3.1 57 105
+ 0.897048 2 3 cbr 512 ------- 0 1.0 3.1 57 105
r 0.898862 2 3 tcp 1040 ------- 0 0.0 3.0 17 57
+ 0.898862 3 2 ack 40 ------- 0 3.0 0.0 17 110
- 0.898862 3 2 ack 40 ------- 0 3.0 0.0 17 110
+ 0.9 1 2 cbr 512 ------- 0 1.0 3.1 60 111
- 0.9 1 2 cbr 512 ------- 0 1.0 3.1 60 111
r 0.901031 2 0 ack 40 ------- 0 3.0 0.0 16 104
+ 0.901031 0 2 tcp 1040 ------- 0 0.0 3.0 33 112
- 0.901031 0 2 tcp 1040 ------- 0 0.0 3.0 33 112
+ 0.901031 0 2 tcp 1040 ------- 0 0.0 3.0 34 113
r 0.901396 0 2 tcp 1040 ------- 0 0.0 3.0 31 106
+ 0.901396 2 3 tcp 1040 ------- 0 0.0 3.0 31 106
r 0.902048 1 2 cbr 512 ------- 0 1.0 3.1 58 108
+ 0.902048 2 3 cbr 512 ------- 0 1.0 3.1 58 108
- 0.902658 2 3 cbr 512 ------- 0 1.0 3.1 32 62
r 0.903413 2 3 cbr 512 ------- 0 1.0 3.1 31 60
+ 0.905 1 2 cbr 512 ------- 0 1.0 3.1 61 114
- 0.905 1 2 cbr 512 ------- 0 1.0 3.1 61 114
- 0.905191 0 2 tcp 1040 ------- 0 0.0 3.0 34 113
r 0.905556 0 2 tcp 1040 ------- 0 0.0 3.0 32 107
+ 0.905556 2 3 tcp 1040 ------- 0 0.0 3.0 32 107
r 0.907048 1 2 cbr 512 ------- 0 1.0 3.1 59 109
+ 0.907048 2 3 cbr 512 ------- 0 1.0 3.1 59 109
- 0.907209 2 3 cbr 512 ------- 0 1.0 3.1 33 65
r 0.909218 3 2 ack 40 ------- 0 3.0 0.0 17 110
+ 0.909218 2 0 ack 40 ------- 0 3.0 0.0 17 110
- 0.909218 2 0 ack 40 ------- 0 3.0 0.0 17 110
+ 0.91 1 2 cbr 512 ------- 0 1.0 3.1 62 115
- 0.91 1 2 cbr 512 ------- 0 1.0 3.1 62 115
- 0.91176 2 3 tcp 1040 ------- 0 0.0 3.0 19 63
r 0.912048 1 2 cbr 512 ------- 0 1.0 3.1 60 111
+ 0.912048 2 3 cbr 512 ------- 0 1.0 3.1 60 111
r 0.912658 2 3 tcp 1040 ------- 0 0.0 3.0 18 58
+ 0.912658 3 2 ack 40 ------- 0 3.0 0.0 18 116
- 0.912658 3 2 ack 40 ------- 0 3.0 0.0 18 116
+ 0.915 1 2 cbr 512 ------- 0 1.0 3.1 63 117
- 0.915 1 2 cbr 512 ------- 0 1.0 3.1 63 117
r 0.915191 0 2 tcp 1040 ------- 0 0.0 3.0 33 112
+ 0.915191 2 3 tcp 1040 ------- 0 0.0 3.0 33 112
r 0.917048 1 2 cbr 512 ------- 0 1.0 3.1 61 114
+ 0.917048 2 3 cbr 512 ------- 0 1.0 3.1 61 114
r 0.917209 2 3 cbr 512 ------- 0 1.0 3.1 32 62
r 0.919351 0 2 tcp 1040 ------- 0 0.0 3.0 34 113
+ 0.919351 2 3 tcp 1040 ------- 0 0.0 3.0 34 113
r 0.919378 2 0 ack 40 ------- 0 3.0 0.0 17 110
+ 0.919378 0 2 tcp 1040 ------- 0 0.0 3.0 35 118
- 0.919378 0 2 tcp 1040 ------- 0 0.0 3.0 35 118
+ 0.919378 0 2 tcp 1040 ------- 0 0.0 3.0 36 119
+ 0.92 1 2 cbr 512 ------- 0 1.0 3.1 64 120
- 0.92 1 2 cbr 512 ------- 0 1.0 3.1 64 120
- 0.921004 2 3 tcp 1040 ------- 0 0.0 3.0 20 64
r 0.92176 2 3 cbr 512 ------- 0 1.0 3.1 33 65
r 0.922048 1 2 cbr 512 ------- 0 1.0 3.1 62 115
+ 0.922048 2 3 cbr 512 ------- 0 1.0 3.1 62 115
r 0.923013 3 2 ack 40 ------- 0 3.0 0.0 18 116
+ 0.923013 2 0 ack 40 ------- 0 3.0 0.0 18 116
- 0.923013 2 0 ack 40 ------- 0 3.0 0.0 18 116
- 0.923538 0 2 tcp 1040 ------- 0 0.0 3.0 36 119
+ 0.925 1 2 cbr 512 ------- 0 1.0 3.1 65 121
- 0.925 1 2 cbr 512 ------- 0 1.0 3.1 65 121
r 0.927048 1 2 cbr 512 ------- 0 1.0 3.1 63 117
+ 0.927048 2 3 cbr 512 ------- 0 1.0 3.1 63 117
+ 0.93 1 2 cbr 512 ------- 0 1.0 3.1 66 122
- 0.93 1 2 cbr 512 ------- 0 1.0 3.1 66 122
- 0.930249 2 3 cbr 512 ------- 0 1.0 3.1 34 66
r 0.931004 2 3 tcp 1040 ------- 0 0.0 3.0 19 63
+ 0.931004 3 2 ack 40 ------- 0 3.0 0.0 19 123
- 0.931004 3 2 ack 40 ------- 0 3.0 0.0 19 123
r 0.932048 1 2 cbr 512 ------- 0 1.0 3.1 64 120
+ 0.932048 2 3 cbr 512 ------- 0 1.0 3.1 64 120
r 0.933173 2 0 ack 40 ------- 0 3.0 0.0 18 116
+ 0.933173 0 2 tcp 1040 ------- 0 0.0 3.0 37 124
- 0.933173 0 2 tcp 1040 ------- 0 0.0 3.0 37 124
+ 0.933173 0 2 tcp 1040 ------- 0 0.0 3.0 38 125
r 0.933538 0 2 tcp 1040 ------- 0 0.0 3.0 35 118
+ 0.933538 2 3 tcp 1040 ------- 0 0.0 3.0 35 118
- 0.9348 2 3 cbr 512 ------- 0 1.0 3.1 35 67
+ 0.935 1 2 cbr 512 ------- 0 1.0 3.1 67 126
- 0.935 1 2 cbr 512 ------- 0 1.0 3.1 67 126
r 0.937048 1 2 cbr 512 ------- 0 1.0 3.1 65 121
+ 0.937048 2 3 cbr 512 ------- 0 1.0 3.1 65 121
- 0.937333 0 2 tcp 1040 ------- 0 0.0 3.0 38 125
r 0.937698 0 2 tcp 1040 ------- 0 0.0 3.0 36 119
+ 0.937698 2 3 tcp 1040 ------- 0 0.0 3.0 36 119
- 0.939351 2 3 tcp 1040 ------- 0 0.0 3.0 21 69
+ 0.94 1 2 cbr 512 ------- 0 1.0 3.1 68 127
- 0.94 1 2 cbr 512 ------- 0 1.0 3.1 68 127
r 0.940249 2 3 tcp 1040 ------- 0 0.0 3.0 20 64