n -t 0 -s 0 -S DLABEL -l "tcp source" -L ""
n -t 0 -s 1 -S DLABEL -l "udp source" -L ""
V -t * -v 1.0a5 -a 0
A -t * -n 1 -p 0 -o 0x7fffffff -c 30 -a 1
A -t * -h 1 -m 1073741823 -s 0
c -t * -i 1 -n red
c -t * -i 2 -n blue
n -t * -a 4 -s 4 -S UP -v circle -c black -i black
n -t * -a 0 -s 0 -S UP -v circle -c red -i red
n -t * -a 5 -s 5 -S UP -v circle -c black -i black
n -t * -a 1 -s 1 -S UP -v circle -c blue -i blue
n -t * -a 6 -s 6 -S UP -v circle -c black -i black
n -t * -a 2 -s 2 -S UP -v circle -c black -i black
n -t * -a 3 -s 3 -S UP -v circle -c black -i black
l -t * -s 0 -d 2 -S UP -r 2000000 -D 0.01 -c black -o right-down
l -t * -s 1 -d 2 -S UP -r 2000000 -D 0.01 -c black -o right-up
l -t * -s 2 -d 3 -S UP -r 900000 -D 0.01 -c black -o right
X -t * -n 7 -r 0.5Mb -D 40ms -o left
L -t * -s 7 -d 3 -o up
L -t * -s 7 -d 4 -o down
L -t * -s 7 -d 5 -o up
L -t * -s 7 -d 6 -o down
+ -t 0.5 -s 0 -d 2 -p tcp -e 40 -c 1 -i 0 -a 1 -x {0.0 4.0 0 ------- null}
- -t 0.5 -s 0 -d 2 -p tcp -e 40 -c 1 -i 0 -a 1 -x {0.0 4.0 0 ------- null}
h -t 0.5 -s 0 -d 2 -p tcp -e 40 -c 1 -i 0 -a 1 -x {0.0 4.0 -1 ------- null}
r -t 0.51016 -s 0 -d 2 -p tcp -e 40 -c 1 -i 0 -a 1 -x {0.0 4.0 0 ------- null}
+ -t 0.51016 -s 2 -d 3 -p tcp -e 40 -c 1 -i 0 -a 1 -x {0.0 4.0 0 ------- null}
- -t 0.51016 -s 2 -d 3 -p tcp -e 40 -c 1 -i 0 -a 1 -x {0.0 4.0 0 ------- null}
h -t 0.51016 -s 2 -d 3 -p tcp -e 40 -c 1 -i 0 -a 1 -x {0.0 4.0 -1 ------- null}
r -t 0.520515555555556 -s 2 -d 3 -p tcp -e 40 -c 1 -i 0 -a 1 -x {0.0 4.0 0 ------- null}
h -t 0.520515555555556 -s 3 -d 7 -p tcp -e 40 -c 1 -i 0 -a 1 -x {0.0 4.0 0 ------- null}
+ -t 0.560515555555556 -s 3 -d 7 -p tcp -e 40 -c 1 -i 0 -a 1 -x {0.0 4.0 0 ------- null}
- -t 0.560515555555556 -s 3 -d 7 -p tcp -e 40 -c 1 -i 0 -a 1 -x {0.0 4.0 0 ------- null}
h -t 0.560515555555556 -s 3 -d 7 -p tcp -e 40 -c 1 -i 0 -a 1 -x {0.0 4.0 -1 ------- null}
d -t 0.560519555555556 -s 6 -d 7 -p tcp -e 40 -c 1 -i 0 -a 1 -x {0.0 4.0 0 ------- null}
d -t 0.560519555555556 -s 5 -d 7 -p tcp -e 40 -c 1 -i 0 -a 1 -x {0.0 4.0 0 ------- null}
+ -t 0.6 -s 1 -d 2 -p cbr -e 450 -c 0 -i 1 -a 0 -x {1.0 6.0 0 ------- null}
- -t 0.6 -s 1 -d 2 -p cbr -e 450 -c 0 -i 1 -a 0 -x {1.0 6.0 0 ------- null}
h -t 0.6 -s 1 -d 2 -p cbr -e 450 -c 0 -i 1 -a 0 -x {1.0 6.0 -1 ------- null}
r -t 0.600519555555556 -s 7 -d 4 -p tcp -e 40 -c 1 -i 0 -a 1 -x {0.0 4.0 0 ------- null}
h -t 0.600519555555556 -s 4 -d 7 -p ack -e 40 -c 1 -i 2 -a 1 -x {4.0 0.0 0 ------- null}
+ -t 0.608035714285714 -s 1 -d 2 -p cbr -e 450 -c 0 -i 3 -a 0 -x {1.0 6.0 1 ------- null}
- -t 0.608035714285714 -s 1 -d 2 -p cbr -e 450 -c 0 -i 3 -a 0 -x {1.0 6.0 1 ------- null}
h -t 0.608035714285714 -s 1 -d 2 -p cbr -e 450 -c 0 -i 3 -a 0 -x {1.0 6.0 -1 ------- null}
r -t 0.6118 -s 1 -d 2 -p cbr -e 450 -c 0 -i 1 -a 0 -x {1.0 6.0 0 ------- null}
+ -t 0.6118 -s 2 -d 3 -p cbr -e 450 -c 0 -i 1 -a 0 -x {1.0 6.0 0 ------- null}
- -t 0.6118 -s 2 -d 3 -p cbr -e 450 -c 0 -i 1 -a 0 -x {1.0 6.0 0 ------- null}
h -t 0.6118 -s 2 -d 3 -p cbr -e 450 -c 0 -i 1 -a 0 -x {1.0 6.0 -1 ------- null}
+ -t 0.616071428571428 -s 1 -d 2 -p cbr -e 450 -c 0 -i 4 -a 0 -x {1.0 6.0 2 ------- null}
- -t 0.616071428571428 -s 1 -d 2 -p cbr -e 450 -c 0 -i 4 -a 0 -x {1.0 6.0 2 ------- null}
h -t 0.616071428571428 -s 1 -d 2 -p cbr -e 450 -c 0 -i 4 -a 0 -x {1.0 6.0 -1 ------- null}
r -t 0.619835714285714 -s 1 -d 2 -p cbr -e 450 -c 0 -i 3 -a 0 -x {1.0 6.0 1 ------- null}
+ -t 0.619835714285714 -s 2 -d 3 -p cbr -e 450 -c 0 -i 3 -a 0 -x {1.0 6.0 1 ------- null}
- -t 0.619835714285714 -s 2 -d 3 -p cbr -e 450 -c 0 -i 3 -a 0 -x {1.0 6.0 1 ------- null}
h -t 0.619835714285714 -s 2 -d 3 -p cbr -e 450 -c 0 -i 3 -a 0 -x {1.0 6.0 -1 ------- null}
+ -t 0.624107142857143 -s 1 -d 2 -p cbr -e 450 -c 0 -i 5 -a 0 -x {1.0 6.0 3 ------- null}
- -t 0.624107142857143 -s 1 -d 2 -p cbr -e 450 -c 0 -i 5 -a 0 -x {1.0 6.0 3 ------- null}
h -t 0.624107142857143 -s 1 -d 2 -p cbr -e 450 -c 0 -i 5 -a 0 -x {1.0 6.0 -1 ------- null}
r -t 0.6258 -s 2 -d 3 -p cbr -e 450 -c 0 -i 1 -a 0 -x {1.0 6.0 0 ------- null}
h -t 0.6258 -s 3 -d 7 -p cbr -e 450 -c 0 -i 1 -a 0 -x {1.0 6.0 0 ------- null}
r -t 0.627871428571429 -s 1 -d 2 -p cbr -e 450 -c 0 -i 4 -a 0 -x {1.0 6.0 2 ------- null}
+ -t 0.627871428571429 -s 2 -d 3 -p cbr -e 450 -c 0 -i 4 -a 0 -x {1.0 6.0 2 ------- null}
- -t 0.627871428571429 -s 2 -d 3 -p cbr -e 450 -c 0 -i 4 -a 0 -x {1.0 6.0 2 ------- null}
h -t 0.627871428571429 -s 2 -d 3 -p cbr -e 450 -c 0 -i 4 -a 0 -x {1.0 6.0 -1 ------- null}
+ -t 0.632142857142857 -s 1 -d 2 -p cbr -e 450 -c 0 -i 6 -a 0 -x {1.0 6.0 4 ------- null}
- -t 0.632142857142857 -s 1 -d 2 -p cbr -e 450 -c 0 -i 6 -a 0 -x {1.0 6.0 4 ------- null}
h -t 0.632142857142857 -s 1 -d 2 -p cbr -e 450 -c 0 -i 6 -a 0 -x {1.0 6.0 -1 ------- null}
r -t 0.633835714285714 -s 2 -d 3 -p cbr -e 450 -c 0 -i 3 -a 0 -x {1.0 6.0 1 ------- null}
h -t 0.633835714285714 -s 3 -d 7 -p cbr -e 450 -c 0 -i 3 -a 0 -x {1.0 6.0 1 ------- null}
r -t 0.635907142857143 -s 1 -d 2 -p cbr -e 450 -c 0 -i 5 -a 0 -x {1.0 6.0 3 ------- null}
+ -t 0.635907142857143 -s 2 -d 3 -p cbr -e 450 -c 0 -i 5 -a 0 -x {1.0 6.0 3 ------- null}
- -t 0.635907142857143 -s 2 -d 3 -p cbr -e 450 -c 0 -i 5 -a 0 -x {1.0 6.0 3 ------- null}
h -t 0.635907142857143 -s 2 -d 3 -p cbr -e 450 -c 0 -i 5 -a 0 -x {1.0 6.0 -1 ------- null}
+ -t 0.640178571428571 -s 1 -d 2 -p cbr -e 450 -c 0 -i 7 -a 0 -x {1.0 6.0 5 ------- null}
- -t 0.640178571428571 -s 1 -d 2 -p cbr -e 450 -c 0 -i 7 -a 0 -x {1.0 6.0 5 ------- null}
h -t 0.640178571428571 -s 1 -d 2 -p cbr -e 450 -c 0 -i 7 -a 0 -x {1.0 6.0 -1 ------- null}
+ -t 0.640519555555556 -s 4 -d 7 -p ack -e 40 -c 1 -i 2 -a 1 -x {4.0 0.0 0 ------- null}
- -t 0.640519555555556 -s 4 -d 7 -p ack -e 40 -c 1 -i 2 -a 1 -x {4.0 0.0 0 ------- null}
h -t 0.640519555555556 -s 4 -d 7 -p ack -e 40 -c 1 -i 2 -a 1 -x {4.0 0.0 -1 ------- null}
d -t 0.640523555555556 -s 6 -d 7 -p ack -e 40 -c 1 -i 2 -a 1 -x {4.0 0.0 0 ------- null}
d -t 0.640523555555556 -s 5 -d 7 -p ack -e 40 -c 1 -i 2 -a 1 -x {4.0 0.0 0 ------- null}
r -t 0.641871428571429 -s 2 -d 3 -p cbr -e 450 -c 0 -i 4 -a 0 -x {1.0 6.0 2 ------- null}
h -t 0.641871428571429 -s 3 -d 7 -p cbr -e 450 -c 0 -i 4 -a 0 -x {1.0 6.0 2 ------- null}
r -t 0.643942857142857 -s 1 -d 2 -p cbr -e 450 -c 0 -i 6 -a 0 -x {1.0 6.0 4 ------- null}
+ -t 0.643942857142857 -s 2 -d 3 -p cbr -e 450 -c 0 -i 6 -a 0 -x {1.0 6.0 4 ------- null}
- -t 0.643942857142857 -s 2 -d 3 -p cbr -e 450 -c 0 -i 6 -a 0 -x {1.0 6.0 4 ------- null}
h -t 0.643942857142857 -s 2 -d 3 -p cbr -e 450 -c 0 -i 6 -a 0 -x {1.0 6.0 -1 ------- null}
+ -t 0.648214285714286 -s 1 -d 2 -p cbr -e 450 -c 0 -i 8 -a 0 -x {1.0 6.0 6 ------- null}
- -t 0.648214285714286 -s 1 -d 2 -p cbr -e 450 -c 0 -i 8 -a 0 -x {1.0 6.0 6 ------- null}
h -t 0.648214285714286 -s 1 -d 2 -p cbr -e 450 -c 0 -i 8 -a 0 -x {1.0 6.0 -1 ------- null}
r -t 0.649907142857143 -s 2 -d 3 -p cbr -e 450 -c 0 -i 5 -a 0 -x {1.0 6.0 3 ------- null}
h -t 0.649907142857143 -s 3 -d 7 -p cbr -e 450 -c 0 -i 5 -a 0 -x {1.0 6.0 3 ------- null}
r -t 0.651978571428571 -s 1 -d 2 -p cbr -e 450 -c 0 -i 7 -a 0 -x {1.0 6.0 5 ------- null}
+ -t 0.651978571428571 -s 2 -d 3 -p cbr -e 450 -c 0 -i 7 -a 0 -x {1.0 6.0 5 ------- null}
- -t 0.651978571428571 -s 2 -d 3 -p cbr -e 450 -c 0 -i 7 -a 0 -x {1.0 6.0 5 ------- null}
h -t 0.651978571428571 -s 2 -d 3 -p cbr -e 450 -c 0 -i 7 -a 0 -x {1.0 6.0 -1 ------- null}
+ -t 0.65625 -s 1 -d 2 -p cbr -e 450 -c 0 -i 9 -a 0 -x {1.0 6.0 7 ------- null}
- -t 0.65625 -s 1 -d 2 -p cbr -e 450 -c 0 -i 9 -a 0 -x {1.0 6.0 7 ------- null}
h -t 0.65625 -s 1 -d 2 -p cbr -e 450 -c 0 -i 9 -a 0 -x {1.0 6.0 -1 ------- null}
r -t 0.657942857142857 -s 2 -d 3 -p cbr -e 450 -c 0 -i 6 -a 0 -x {1.0 6.0 4 ------- null}
h -t 0.657942857142857 -s 3 -d 7 -p cbr -e 450 -c 0 -i 6 -a 0 -x {1.0 6.0 4 ------- null}
r -t 0.660014285714286 -s 1 -d 2 -p cbr -e 450 -c 0 -i 8 -a 0 -x {1.0 6.0 6 ------- null}
+ -t 0.660014285714286 -s 2 -d 3 -p cbr -e 450 -c 0 -i 8 -a 0 -x {1.0 6.0 6 ------- null}
- -t 0.660014285714286 -s 2 -d 3 -p cbr -e 450 -c 0 -i 8 -a 0 -x {1.0 6.0 6 ------- null}
h -t 0.660014285714286 -s 2 -d 3 -p cbr -e 450 -c 0 -i 8 -a 0 -x {1.0 6.0 -1 ------- null}
+ -t 0.664285714285714 -s 1 -d 2 -p cbr -e 450 -c 0 -i 10 -a 0 -x {1.0 6.0 8 ------- null}
- -t 0.664285714285714 -s 1 -d 2 -p cbr -e 450 -c 0 -i 10 -a 0 -x {1.0 6.0 8 ------- null}
h -t 0.664285714285714 -s 1 -d 2 -p cbr -e 450 -c 0 -i 10 -a 0 -x {1.0 6.0 -1 ------- null}
+ -t 0.6658 -s 3 -d 7 -p cbr -e 450 -c 0 -i 1 -a 0 -x {1.0 6.0 0 ------- null}
- -t 0.6658 -s 3 -d 7 -p cbr -e 450 -c 0 -i 1 -a 0 -x {1.0 6.0 0 ------- null}
h -t 0.6658 -s 3 -d 7 -p cbr -e 450 -c 0 -i 1 -a 0 -x {1.0 6.0 -1 ------- null}
d -t 0.665804 -s 5 -d 7 -p cbr -e 450 -c 0 -i 1 -a 0 -x {1.0 6.0 0 ------- null}
d -t 0.665804 -s 4 -d 7 -p cbr -e 450 -c 0 -i 1 -a 0 -x {1.0 6.0 0 ------- null}
r -t 0.665978571428571 -s 2 -d 3 -p cbr -e 450 -c 0 -i 7 -a 0 -x {1.0 6.0 5 ------- null}
h -t 0.665978571428571 -s 3 -d 7 -p cbr -e 450 -c 0 -i 7 -a 0 -x {1.0 6.0 5 ------- null}
r -t 0.66805 -s 1 -d 2 -p cbr -e 450 -c 0 -i 9 -a 0 -x {1.0 6.0 7 ------- null}
+ -t 0.66805 -s 2 -d 3 -p cbr -e 450 -c 0 -i 9 -a 0 -x {1.0 6.0 7 ------- null}
- -t 0.66805 -s 2 -d 3 -p cbr -e 450 -c 0 -i 9 -a 0 -x {1.0 6.0 7 ------- null}
h -t 0.66805 -s 2 -d 3 -p cbr -e 450 -c 0 -i 9 -a 0 -x {1.0 6.0 -1 ------- null}
+ -t 0.672321428571428 -s 1 -d 2 -p cbr -e 450 -c 0 -i 11 -a 0 -x {1.0 6.0 9 ------- null}
- -t 0.672321428571428 -s 1 -d 2 -p cbr -e 450 -c 0 -i 11 -a 0 -x {1.0 6.0 9 ------- null}
h -t 0.672321428571428 -s 1 -d 2 -p cbr -e 450 -c 0 -i 11 -a 0 -x {1.0 6.0 -1 ------- null}
+ -t 0.673835714285714 -s 3 -d 7 -p cbr -e 450 -c 0 -i 3 -a 0 -x {1.0 6.0 1 ------- null}
- -t 0.673835714285714 -s 3 -d 7 -p cbr -e 450 -c 0 -i 3 -a 0 -x {1.0 6.0 1 ------- null}
h -t 0.673835714285714 -s 3 -d 7 -p cbr -e 450 -c 0 -i 3 -a 0 -x {1.0 6.0 -1 ------- null}
d -t 0.673839714285714 -s 5 -d 7 -p cbr -e 450 -c 0 -i 3 -a 0 -x {1.0 6.0 1 ------- null}
d -t 0.673839714285714 -s 4 -d 7 -p cbr -e 450 -c 0 -i 3 -a 0 -x {1.0 6.0 1 ------- null}
r -t 0.674014285714286 -s 2 -d 3 -p cbr -e 450 -c 0 -i 8 -a 0 -x {1.0 6.0 6 ------- null}
h -t 0.674014285714286 -s 3 -d 7 -p cbr -e 450 -c 0 -i 8 -a 0 -x {1.0 6.0 6 ------- null}
r -t 0.676085714285714 -s 1 -d 2 -p cbr -e 450 -c 0 -i 10 -a 0 -x {1.0 6.0 8 ------- null}
+ -t 0.676085714285714 -s 2 -d 3 -p cbr -e 450 -c 0 -i 10 -a 0 -x {1.0 6.0 8 ------- null}
- -t 0.676085714285714 -s 2 -d 3 -p cbr -e 450 -c 0 -i 10 -a 0 -x {1.0 6.0 8 ------- null}
h -t 0.676085714285714 -s 2 -d 3 -p cbr -e 450 -c 0 -i 10 -a 0 -x {1.0 6.0 -1 ------- null}
+ -t 0.680357142857143 -s 1 -d 2 -p cbr -e 450 -c 0 -i 12 -a 0 -x {1.0 6.0 10 ------- null}
- -t 0.680357142857143 -s 1 -d 2 -p cbr -e 450 -c 0 -i 12 -a 0 -x {1.0 6.0 10 ------- null}
h -t 0.680357142857143 -s 1 -d 2 -p cbr -e 450 -c 0 -i 12 -a 0 -x {1.0 6.0 -1 ------- null}
r -t 0.680523555555556 -s 7 -d 3 -p ack -e 40 -c 1 -i 2 -a 1 -x {4.0 0.0 0 ------- null}
+ -t 0.680523555555556 -s 3 -d 2 -p ack -e 40 -c 1 -i 2 -a 1 -x {4.0 0.0 0 ------- null}
- -t 0.680523555555556 -s 3 -d 2 -p ack -e 40 -c 1 -i 2 -a 1 -x {4.0 0.0 0 ------- null}
h -t 0.680523555555556 -s 3 -d 2 -p ack -e 40 -c 1 -i 2 -a 1 -x {4.0 0.0 -1 ------- null}
+ -t 0.681871428571429 -s 3 -d 7 -p cbr -e 450 -c 0 -i 4 -a 0 -x {1.0 6.0 2 ------- null}
- -t 0.681871428571429 -s 3 -d 7 -p cbr -e 450 -c 0 -i 4 -a 0 -x {1.0 6.0 2 ------- null}
h -t 0.681871428571429 -s 3 -d 7 -p cbr -e 450 -c 0 -i 4 -a 0 -x {1.0 6.0 -1 ------- null}
d -t 0.681875428571429 -s 5 -d 7 -p cbr -e 450 -c 0 -i 4 -a 0 -x {1.0 6.0 2 ------- null}
d -t 0.681875428571429 -s 4 -d 7 -p cbr -e 450 -c 0 -i 4 -a 0 -x {1.0 6.0 2 ------- null}
r -t 0.68205 -s 2 -d 3 -p cbr -e 450 -c 0 -i 9 -a 0 -x {1.0 6.0 7 ------- null}
h -t 0.68205 -s 3 -d 7 -p cbr -e 450 -c 0 -i 9 -a 0 -x {1.0 6.0 7 ------- null}
r -t 0.684121428571428 -s 1 -d 2 -p cbr -e 450 -c 0 -i 11 -a 0 -x {1.0 6.0 9 ------- null}
+ -t 0.684121428571428 -s 2 -d 3 -p cbr -e 450 -c 0 -i 11 -a 0 -x {1.0 6.0 9 ------- null}
- -t 0.684121428571428 -s 2 -d 3 -p cbr -e 450 -c 0 -i 11 -a 0 -x {1.0 6.0 9 ------- null}
h -t 0.684121428571428 -s 2 -d 3 -p cbr -e 450 -c 0 -i 11 -a 0 -x {1.0 6.0 -1 ------- null}
+ -t 0.688392857142857 -s 1 -d 2 -p cbr -e 450 -c 0 -i 13 -a 0 -x {1.0 6.0 11 ------- null}
- -t 0.688392857142857 -s 1 -d 2 -p cbr -e 450 -c 0 -i 13 -a 0 -x {1.0 6.0 11 ------- null}
h -t 0.688392857142857 -s 1 -d 2 -p cbr -e 450 -c 0 -i 13 -a 0 -x {1.0 6.0 -1 ------- null}
+ -t 0.689907142857143 -s 3 -d 7 -p cbr -e 450 -c 0 -i 5 -a 0 -x {1.0 6.0 3 ------- null}
- -t 0.689907142857143 -s 3 -d 7 -p cbr -e 450 -c 0 -i 5 -a 0 -x {1.0 6.0 3 ------- null}
h -t 0.689907142857143 -s 3 -d 7 -p cbr -e 450 -c 0 -i 5 -a 0 -x {1.0 6.0 -1 ------- null}
d -t 0.689911142857143 -s 5 -d 7 -p cbr -e 450 -c 0 -i 5 -a 0 -x {1.0 6.0 3 ------- null}
d -t 0.689911142857143 -s 4 -d 7 -p cbr -e 450 -c 0 -i 5 -a 0 -x {1.0 6.0 3 ------- null}
r -t 0.690085714285714 -s 2 -d 3 -p cbr -e 450 -c 0 -i 10 -a 0 -x {1.0 6.0 8 ------- null}
h -t 0.690085714285714 -s 3 -d 7 -p cbr -e 450 -c 0 -i 10 -a 0 -x {1.0 6.0 8 ------- null}
r -t 0.690879111111111 -s 3 -d 2 -p ack -e 40 -c 1 -i 2 -a 1 -x {4.0 0.0 0 ------- null}
+ -t 0.690879111111111 -s 2 -d 0 -p ack -e 40 -c 1 -i 2 -a 1 -x {4.0 0.0 0 ------- null}
- -t 0.690879111111111 -s 2 -d 0 -p ack -e 40 -c 1 -i 2 -a 1 -x {4.0 0.0 0 ------- null}
h -t 0.690879111111111 -s 2 -d 0 -p ack -e 40 -c 1 -i 2 -a 1 -x {4.0 0.0 -1 ------- null}
r -t 0.692157142857143 -s 1 -d 2 -p cbr -e 450 -c 0 -i 12 -a 0 -x {1.0 6.0 10 ------- null}
+ -t 0.692157142857143 -s 2 -d 3 -p cbr -e 450 -c 0 -i 12 -a 0 -x {1.0 6.0 10 ------- null}
- -t 0.692157142857143 -s 2 -d 3 -p cbr -e 450 -c 0 -i 12 -a 0 -x {1.0 6.0 10 ------- null}
h -t 0.692157142857143 -s 2 -d 3 -p cbr -e 450 -c 0 -i 12 -a 0 -x {1.0 6.0 -1 ------- null}
+ -t 0.696428571428571 -s 1 -d 2 -p cbr -e 450 -c 0 -i 14 -a 0 -x {1.0 6.0 12 ------- null}
- -t 0.696428571428571 -s 1 -d 2 -p cbr -e 450 -c 0 -i 14 -a 0 -x {1.0 6.0 12 ------- null}
h -t 0.696428571428571 -s 1 -d 2 -p cbr -e 450 -c 0 -i 14 -a 0 -x {1.0 6.0 -1 ------- null}
+ -t 0.697942857142857 -s 3 -d 7 -p cbr -e 450 -c 0 -i 6 -a 0 -x {1.0 6.0 4 ------- null}
- -t 0.697942857142857 -s 3 -d 7 -p cbr -e 450 -c 0 -i 6 -a 0 -x {1.0 6.0 4 ------- null}
h -t 0.697942857142857 -s 3 -d 7 -p cbr -e 450 -c 0 -i 6 -a 0 -x {1.0 6.0 -1 ------- null}
d -t 0.697946857142857 -s 5 -d 7 -p cbr -e 450 -c 0 -i 6 -a 0 -x {1.0 6.0 4 ------- null}
d -t 0.697946857142857 -s 4 -d 7 -p cbr -e 450 -c 0 -i 6 -a 0 -x {1.0 6.0 4 ------- null}
r -t 0.698121428571428 -s 2 -d 3 -p cbr -e 450 -c 0 -i 11 -a 0 -x {1.0 6.0 9 ------- null}
h -t 0.698121428571428 -s 3 -d 7 -p cbr -e 450 -c 0 -i 11 -a 0 -x {1.0 6.0 9 ------- null}
r -t 0.700192857142857 -s 1 -d 2 -p cbr -e 450 -c 0 -i 13 -a 0 -x {1.0 6.0 11 ------- null}
+ -t 0.700192857142857 -s 2 -d 3 -p cbr -e 450 -c 0 -i 13 -a 0 -x {1.0 6.0 11 ------- null}
- -t 0.700192857142857 -s 2 -d 3 -p cbr -e 450 -c 0 -i 13 -a 0 -x {1.0 6.0 11 ------- null}
h -t 0.700192857142857 -s 2 -d 3 -p cbr -e 450 -c 0 -i 13 -a 0 -x {1.0 6.0 -1 ------- null}
r -t 0.701039111111111 -s 2 -d 0 -p ack -e 40 -c 1 -i 2 -a 1 -x {4.0 0.0 0 ------- null}
+ -t 0.701039111111111 -s 0 -d 2 -p tcp -e 296 -c 1 -i 15 -a 1 -x {0.0 4.0 1 ------- null}
- -t 0.701039111111111 -s 0 -d 2 -p tcp -e 296 -c 1 -i 15 -a 1 -x {0.0 4.0 1 ------- null}
h -t 0.701039111111111 -s 0 -d 2 -p tcp -e 296 -c 1 -i 15 -a 1 -x {0.0 4.0 -1 ------- null}
+ -t 0.701039111111111 -s 0 -d 2 -p tcp -e 296 -c 1 -i 16 -a 1 -x {0.0 4.0 2 ------- null}
- -t 0.702223111111111 -s 0 -d 2 -p tcp -e 296 -c 1 -i 16 -a 1 -x {0.0 4.0 2 ------- null}
h -t 0.702223111111111 -s 0 -d 2 -p tcp -e 296 -c 1 -i 16 -a 1 -x {0.0 4.0 -1 ------- null}
+ -t 0.704464285714285 -s 1 -d 2 -p cbr -e 450 -c 0 -i 17 -a 0 -x {1.0 6.0 13 ------- null}
- -t 0.704464285714285 -s 1 -d 2 -p cbr -e 450 -c 0 -i 17 -a 0 -x {1.0 6.0 13 ------- null}
h -t 0.704464285714285 -s 1 -d 2 -p cbr -e 450 -c 0 -i 17 -a 0 -x {1.0 6.0 -1 ------- null}
r -t 0.705804 -s 7 -d 6 -p cbr -e 450 -c 0 -i 1 -a 0 -x {1.0 6.0 0 ------- null}
+ -t 0.705978571428571 -s 3 -d 7 -p cbr -e 450 -c 0 -i 7 -a 0 -x {1.0 6.0 5 ------- null}
- -t 0.705978571428571 -s 3 -d 7 -p cbr -e 450 -c 0 -i 7 -a 0 -x {1.0 6.0 5 ------- null}
h -t 0.705978571428571 -s 3 -d 7 -p cbr -e 450 -c 0 -i 7 -a 0 -x {1.0 6.0 -1 ------- null}
d -t 0.705982571428571 -s 5 -d 7 -p cbr -e 450 -c 0 -i 7 -a 0 -x {1.0 6.0 5 ------- null}
d -t 0.705982571428571 -s 4 -d 7 -p cbr -e 450 -c 0 -i 7 -a 0 -x {1.0 6.0 5 ------- null}
r -t 0.706157142857143 -s 2 -d 3 -p cbr -e 450 -c 0 -i 12 -a 0 -x {1.0 6.0 10 ------- null}
h -t 0.706157142857143 -s 3 -d 7 -p cbr -e 450 -c 0 -i 12 -a 0 -x {1.0 6.0 10 ------- null}
r -t 0.708228571428571 -s 1 -d 2 -p cbr -e 450 -c 0 -i 14 -a 0 -x {1.0 6.0 12 ------- null}
+ -t 0.708228571428571 -s 2 -d 3 -p cbr -e 450 -c 0 -i 14 -a 0 -x {1.0 6.0 12 ------- null}
- -t 0.708228571428571 -s 2 -d 3 -p cbr -e 450 -c 0 -i 14 -a 0 -x {1.0 6.0 12 ------- null}
h -t 0.708228571428571 -s 2 -d 3 -p cbr -e 450 -c 0 -i 14 -a 0 -x {1.0 6.0 -1 ------- null}
r -t 0.712223111111111 -s 0 -d 2 -p tcp -e 296 -c 1 -i 15 -a 1 -x {0.0 4.0 1 ------- null}
+ -t 0.712223111111111 -s 2 -d 3 -p tcp -e 296 -c 1 -i 15 -a 1 -x {0.0 4.0 1 ------- null}
- -t 0.712228571428571 -s 2 -d 3 -p tcp -e 296 -c 1 -i 15 -a 1 -x {0.0 4.0 1 ------- null}
h -t 0.712228571428571 -s 2 -d 3 -p tcp -e 296 -c 1 -i 15 -a 1 -x {0.0 4.0 -1 ------- null}
+ -t 0.7125 -s 1 -d 2 -p cbr -e 450 -c 0 -i 18 -a 0 -x {1.0 6.0 14 ------- null}
- -t 0.7125 -s 1 -d 2 -p cbr -e 450 -c 0 -i 18 -a 0 -x {1.0 6.0 14 ------- null}
h -t 0.7125 -s 1 -d 2 -p cbr -e 450 -c 0 -i 18 -a 0 -x {1.0 6.0 -1 ------- null}
r -t 0.713407111111111 -s 0 -d 2 -p tcp -e 296 -c 1 -i 16 -a 1 -x {0.0 4.0 2 ------- null}
+ -t 0.713407111111111 -s 2 -d 3 -p tcp -e 296 -c 1 -i 16 -a 1 -x {0.0 4.0 2 ------- null}
r -t 0.713839714285714 -s 7 -d 6 -p cbr -e 450 -c 0 -i 3 -a 0 -x {1.0 6.0 1 ------- null}
+ -t 0.714014285714286 -s 3 -d 7 -p cbr -e 450 -c 0 -i 8 -a 0 -x {1.0 6.0 6 ------- null}
- -t 0.714014285714286 -s 3 -d 7 -p cbr -e 450 -c 0 -i 8 -a 0 -x {1.0 6.0 6 ------- null}
h -t 0.714014285714286 -s 3 -d 7 -p cbr -e 450 -c 0 -i 8 -a 0 -x {1.0 6.0 -1 ------- null}
d -t 0.714018285714286 -s 5 -d 7 -p cbr -e 450 -c 0 -i 8 -a 0 -x {1.0 6.0 6 ------- null}
d -t 0.714018285714286 -s 4 -d 7 -p cbr -e 450 -c 0 -i 8 -a 0 -x {1.0 6.0 6 ------- null}
r -t 0.714192857142857 -s 2 -d 3 -p cbr -e 450 -c 0 -i 13 -a 0 -x {1.0 6.0 11 ------- null}
h -t 0.714192857142857 -s 3 -d 7 -p cbr -e 450 -c 0 -i 13 -a 0 -x {1.0 6.0 11 ------- null}
- -t 0.714859682539682 -s 2 -d 3 -p tcp -e 296 -c 1 -i 16 -a 1 -x {0.0 4.0 2 ------- null}
h -t 0.714859682539682 -s 2 -d 3 -p tcp -e 296 -c 1 -i 16 -a 1 -x {0.0 4.0 -1 ------- null}
r -t 0.716264285714285 -s 1 -d 2 -p cbr -e 450 -c 0 -i 17 -a 0 -x {1.0 6.0 13 ------- null}
+ -t 0.716264285714285 -s 2 -d 3 -p cbr -e 450 -c 0 -i 17 -a 0 -x {1.0 6.0 13 ------- null}
- -t 0.717490793650793 -s 2 -d 3 -p cbr -e 450 -c 0 -i 17 -a 0 -x {1.0 6.0 13 ------- null}
h -t 0.717490793650793 -s 2 -d 3 -p cbr -e 450 -c 0 -i 17 -a 0 -x {1.0 6.0 -1 ------- null}
+ -t 0.720535714285714 -s 1 -d 2 -p cbr -e 450 -c 0 -i 19 -a 0 -x {1.0 6.0 15 ------- null}
- -t 0.720535714285714 -s 1 -d 2 -p cbr -e 450 -c 0 -i 19 -a 0 -x {1.0 6.0 15 ------- null}
h -t 0.720535714285714 -s 1 -d 2 -p cbr -e 450 -c 0 -i 19 -a 0 -x {1.0 6.0 -1 ------- null}
r -t 0.721875428571429 -s 7 -d 6 -p cbr -e 450 -c 0 -i 4 -a 0 -x {1.0 6.0 2 ------- null}
+ -t 0.72205 -s 3 -d 7 -p cbr -e 450 -c 0 -i 9 -a 0 -x {1.0 6.0 7 ------- null}
- -t 0.72205 -s 3 -d 7 -p cbr -e 450 -c 0 -i 9 -a 0 -x {1.0 6.0 7 ------- null}
h -t 0.72205 -s 3 -d 7 -p cbr -e 450 -c 0 -i 9 -a 0 -x {1.0 6.0 -1 ------- null}
d -t 0.722054 -s 5 -d 7 -p cbr -e 450 -c 0 -i 9 -a 0 -x {1.0 6.0 7 ------- null}
d -t 0.722054 -s 4 -d 7 -p cbr -e 450 -c 0 -i 9 -a 0 -x {1.0 6.0 7 ------- null}
r -t 0.722228571428571 -s 2 -d 3 -p cbr -e 450 -c 0 -i 14 -a 0 -x {1.0 6.0 12 ------- null}
h -t 0.722228571428571 -s 3 -d 7 -p cbr -e 450 -c 0 -i 14 -a 0 -x {1.0 6.0 12 ------- null}
r -t 0.7243 -s 1 -d 2 -p cbr -e 450 -c 0 -i 18 -a 0 -x {1.0 6.0 14 ------- null}
+ -t 0.7243 -s 2 -d 3 -p cbr -e 450 -c 0 -i 18 -a 0 -x {1.0 6.0 14 ------- null}
- -t 0.7243 -s 2 -d 3 -p cbr -e 450 -c 0 -i 18 -a 0 -x {1.0 6.0 14 ------- null}
h -t 0.7243 -s 2 -d 3 -p cbr -e 450 -c 0 -i 18 -a 0 -x {1.0 6.0 -1 ------- null}
r -t 0.724859682539682 -s 2 -d 3 -p tcp -e 296 -c 1 -i 15 -a 1 -x {0.0 4.0 1 ------- null}
h -t 0.724859682539682 -s 3 -d 7 -p tcp -e 296 -c 1 -i 15 -a 1 -x {0.0 4.0 1 ------- null}
r -t 0.727490793650793 -s 2 -d 3 -p tcp -e 296 -c 1 -i 16 -a 1 -x {0.0 4.0 2 ------- null}
h -t 0.727490793650793 -s 3 -d 7 -p tcp -e 296 -c 1 -i 16 -a 1 -x {0.0 4.0 2 ------- null}
+ -t 0.728571428571428 -s 1 -d 2 -p cbr -e 450 -c 0 -i 20 -a 0 -x {1.0 6.0 16 ------- null}
- -t 0.728571428571428 -s 1 -d 2 -p cbr -e 450 -c 0 -i 20 -a 0 -x {1.0 6.0 16 ------- null}
h -t 0.728571428571428 -s 1 -d 2 -p cbr -e 450 -c 0 -i 20 -a 0 -x {1.0 6.0 -1 ------- null}
r -t 0.729911142857143 -s 7 -d 6 -p cbr -e 450 -c 0 -i 5 -a 0 -x {1.0 6.0 3 ------- null}
+ -t 0.730085714285714 -s 3 -d 7 -p cbr -e 450 -c 0 -i 10 -a 0 -x {1.0 6.0 8 ------- null}
- -t 0.730085714285714 -s 3 -d 7 -p cbr -e 450 -c 0 -i 10 -a 0 -x {1.0 6.0 8 ------- null}
h -t 0.730085714285714 -s 3 -d 7 -p cbr -e 450 -c 0 -i 10 -a 0 -x {1.0 6.0 -1 ------- null}
d -t 0.730089714285714 -s 5 -d 7 -p cbr -e 450 -c 0 -i 10 -a 0 -x {1.0 6.0 8 ------- null}
d -t 0.730089714285714 -s 4 -d 7 -p cbr -e 450 -c 0 -i 10 -a 0 -x {1.0 6.0 8 ------- null}
r -t 0.731490793650793 -s 2 -d 3 -p cbr -e 450 -c 0 -i 17 -a 0 -x {1.0 6.0 13 ------- null}
h -t 0.731490793650793 -s 3 -d 7 -p cbr -e 450 -c 0 -i 17 -a 0 -x {1.0 6.0 13 ------- null}
r -t 0.732335714285714 -s 1 -d 2 -p cbr -e 450 -c 0 -i 19 -a 0 -x {1.0 6.0 15 ------- null}
+ -t 0.732335714285714 -s 2 -d 3 -p cbr -e 450 -c 0 -i 19 -a 0 -x {1.0 6.0 15 ------- null}
- -t 0.732335714285714 -s 2 -d 3 -p cbr -e 450 -c 0 -i 19 -a 0 -x {1.0 6.0 15 ------- null}
h -t 0.732335714285714 -s 2 -d 3 -p cbr -e 450 -c 0 -i 19 -a 0 -x {1.0 6.0 -1 ------- null}
+ -t 0.736607142857142 -s 1 -d 2 -p cbr -e 450 -c 0 -i 21 -a 0 -x {1.0 6.0 17 ------- null}
- -t 0.736607142857142 -s 1 -d 2 -p cbr -e 450 -c 0 -i 21 -a 0 -x {1.0 6.0 17 ------- null}
h -t 0.736607142857142 -s 1 -d 2 -p cbr -e 450 -c 0 -i 21 -a 0 -x {1.0 6.0 -1 ------- null}
r -t 0.737946857142857 -s 7 -d 6 -p cbr -e 450 -c 0 -i 6 -a 0 -x {1.0 6.0 4 ------- null}
+ -t 0.738121428571428 -s 3 -d 7 -p cbr -e 450 -c 0 -i 11 -a 0 -x {1.0 6.0 9 ------- null}
- -t 0.738121428571428 -s 3 -d 7 -p cbr -e 450 -c 0 -i 11 -a 0 -x {1.0 6.0 9 ------- null}
h -t 0.738121428571428 -s 3 -d 7 -p cbr -e 450 -c 0 -i 11 -a 0 -x {1.0 6.0 -1 ------- null}
d -t 0.738125428571428 -s 5 -d 7 -p cbr -e 450 -c 0 -i 11 -a 0 -x {1.0 6.0 9 ------- null}
d -t 0.738125428571428 -s 4 -d 7 -p cbr -e 450 -c 0 -i 11 -a 0 -x {1.0 6.0 9 ------- null}
r -t 0.7383 -s 2 -d 3 -p cbr -e 450 -c 0 -i 18 -a 0 -x {1.0 6.0 14 ------- null}
h -t 0.7383 -s 3 -d 7 -p cbr -e 450 -c 0 -i 18 -a 0 -x {1.0 6.0 14 ------- null}
r -t 0.740371428571428 -s 1 -d 2 -p cbr -e 450 -c 0 -i 20 -a 0 -x {1.0 6.0 16 ------- null}
+ -t 0.740371428571428 -s 2 -d 3 -p cbr -e 450 -c 0 -i 20 -a 0 -x {1.0 6.0 16 ------- null}
- -t 0.740371428571428 -s 2 -d 3 -p cbr -e 450 -c 0 -i 20 -a 0 -x {1.0 6.0 16 ------- null}
h -t 0.740371428571428 -s 2 -d 3 -p cbr -e 450 -c 0 -i 20 -a 0 -x {1.0 6.0 -1 ------- null}
+ -t 0.744642857142857 -s 1 -d 2 -p cbr -e 450 -c 0 -i 22 -a 0 -x {1.0 6.0 18 ------- null}
- -t 0.744642857142857 -s 1 -d 2 -p cbr -e 450 -c 0 -i 22 -a 0 -x {1.0 6.0 18 ------- null}
h -t 0.744642857142857 -s 1 -d 2 -p cbr -e 450 -c 0 -i 22 -a 0 -x {1.0 6.0 -1 ------- null}
r -t 0.745982571428571 -s 7 -d 6 -p cbr -e 450 -c 0 -i 7 -a 0 -x {1.0 6.0 5 ------- null}
+ -t 0.746157142857143 -s 3 -d 7 -p cbr -e 450 -c 0 -i 12 -a 0 -x {1.0 6.0 10 ------- null}
- -t 0.746157142857143 -s 3 -d 7 -p cbr -e 450 -c 0 -i 12 -a 0 -x {1.0 6.0 10 ------- null}
h -t 0.746157142857143 -s 3 -d 7 -p cbr -e 450 -c 0 -i 12 -a 0 -x {1.0 6.0 -1 ------- null}
d -t 0.746161142857143 -s 5 -d 7 -p cbr -e 450 -c 0 -i 12 -a 0 -x {1.0 6.0 10 ------- null}
d -t 0.746161142857143 -s 4 -d 7 -p cbr -e 450 -c 0 -i 12 -a 0 -x {1.0 6.0 10 ------- null}
r -t 0.746335714285714 -s 2 -d 3 -p cbr -e 450 -c 0 -i 19 -a 0 -x {1.0 6.0 15 ------- null}
h -t 0.746335714285714 -s 3 -d 7 -p cbr -e 450 -c 0 -i 19 -a 0 -x {1.0 6.0 15 ------- null}
r -t 0.748407142857142 -s 1 -d 2 -p cbr -e 450 -c 0 -i 21 -a 0 -x {1.0 6.0 17 ------- null}
+ -t 0.748407142857142 -s 2 -d 3 -p cbr -e 450 -c 0 -i 21 -a 0 -x {1.0 6.0 17 ------- null}
- -t 0.748407142857142 -s 2 -d 3 -p cbr -e 450 -c 0 -i 21 -a 0 -x {1.0 6.0 17 ------- null}
h -t 0.748407142857142 -s 2 -d 3 -p cbr -e 450 -c 0 -i 21 -a 0 -x {1.0 6.0 -1 ------- null}
+ -t 0.752678571428571 -s 1 -d 2 -p cbr -e 450 -c 0 -i 23 -a 0 -x {1.0 6.0 19 ------- null}
- -t 0.752678571428571 -s 1 -d 2 -p cbr -e 450 -c 0 -i 23 -a 0 -x {1.0 6.0 19 ------- null}
h -t 0.752678571428571 -s 1 -d 2 -p cbr -e 450 -c 0 -i 23 -a 0 -x {1.0 6.0 -1 ------- null}
r -t 0.754018285714286 -s 7 -d 6 -p cbr -e 450 -c 0 -i 8 -a 0 -x {1.0 6.0 6 ------- null}
+ -t 0.754192857142857 -s 3 -d 7 -p cbr -e 450 -c 0 -i 13 -a 0 -x {1.0 6.0 11 ------- null}
- -t 0.754192857142857 -s 3 -d 7 -p cbr -e 450 -c 0 -i 13 -a 0 -x {1.0 6.0 11 ------- null}
h -t 0.754192857142857 -s 3 -d 7 -p cbr -e 450 -c 0 -i 13 -a 0 -x {1.0 6.0 -1 ------- null}
d -t 0.754196857142857 -s 5 -d 7 -p cbr -e 450 -c 0 -i 13 -a 0 -x {1.0 6.0 11 ------- null}
d -t 0.754196857142857 -s 4 -d 7 -p cbr -e 450 -c 0 -i 13 -a 0 -x {1.0 6.0 11 ------- null}
r -t 0.754371428571428 -s 2 -d 3 -p cbr -e 450 -c 0 -i 20 -a 0 -x {1.0 6.0 16 ------- null}
h -t 0.754371428571428 -s 3 -d 7 -p cbr -e 450 -c 0 -i 20 -a 0 -x {1.0 6.0 16 ------- null}
r -t 0.756442857142857 -s 1 -d 2 -p cbr -e 450 -c 0 -i 22 -a 0 -x {1.0 6.0 18 ------- null}
+ -t 0.756442857142857 -s 2 -d 3 -p cbr -e 450 -c 0 -i 22 -a 0 -x {1.0 6.0 18 ------- null}
- -t 0.756442857142857 -s 2 -d 3 -p cbr -e 450 -c 0 -i 22 -a 0 -x {1.0 6.0 18 ------- null}
h -t 0.756442857142857 -s 2 -d 3 -p cbr -e 450 -c 0 -i 22 -a 0 -x {1.0 6.0 -1 ------- null}
+ -t 0.760714285714285 -s 1 -d 2 -p cbr -e 450 -c 0 -i 24 -a 0 -x {1.0 6.0 20 ------- null}
- -t 0.760714285714285 -s 1 -d 2 -p cbr -e 450 -c 0 -i 24 -a 0 -x {1.0 6.0 20 ------- null}
h -t 0.760714285714285 -s 1 -d 2 -p cbr -e 450 -c 0 -i 24 -a 0 -x {1.0 6.0 -1 ------- null}
r -t 0.762054 -s 7 -d 6 -p cbr -e 450 -c 0 -i 9 -a 0 -x {1.0 6.0 7 ------- null}
+ -t 0.762228571428571 -s 3 -d 7 -p cbr -e 450 -c 0 -i 14 -a 0 -x {1.0 6.0 12 ------- null}
- -t 0.762228571428571 -s 3 -d 7 -p cbr -e 450 -c 0 -i 14 -a 0 -x {1.0 6.0 12 ------- null}
h -t 0.762228571428571 -s 3 -d 7 -p cbr -e 450 -c 0 -i 14 -a 0 -x {1.0 6.0 -1 ------- null}
d -t 0.762232571428571 -s 5 -d 7 -p cbr -e 450 -c 0 -i 14 -a 0 -x {1.0 6.0 12 ------- null}
d -t 0.762232571428571 -s 4 -d 7 -p cbr -e 450 -c 0 -i 14 -a 0 -x {1.0 6.0 12 ------- null}
r -t 0.762407142857142 -s 2 -d 3 -p cbr -e 450 -c 0 -i 21 -a 0 -x {1.0 6.0 17 ------- null}
h -t 0.762407142857142 -s 3 -d 7 -p cbr -e 450 -c 0 -i 21 -a 0 -x {1.0 6.0 17 ------- null}
r -t 0.764478571428571 -s 1 -d 2 -p cbr -e 450 -c 0 -i 23 -a 0 -x {1.0 6.0 19 ------- null}
+ -t 0.764478571428571 -s 2 -d 3 -p cbr -e 450 -c 0 -i 23 -a 0 -x {1.0 6.0 19 ------- null}
- -t 0.764478571428571 -s 2 -d 3 -p cbr -e 450 -c 0 -i 23 -a 0 -x {1.0 6.0 19 ------- null}
h -t 0.764478571428571 -s 2 -d 3 -p cbr -e 450 -c 0 -i 23 -a 0 -x {1.0 6.0 -1 ------- null}
+ -t 0.764859682539682 -s 3 -d 7 -p tcp -e 296 -c 1 -i 15 -a 1 -x {0.0 4.0 1 ------- null}
- -t 0.764859682539682 -s 3 -d 7 -p tcp -e 296 -c 1 -i 15 -a 1 -x {0.0 4.0 1 ------- null}
h -t 0.764859682539682 -s 3 -d 7 -p tcp -e 296 -c 1 -i 15 -a 1 -x {0.0 4.0 -1 ------- null}
d -t 0.764863682539682 -s 6 -d 7 -p tcp -e 296 -c 1 -i 15 -a 1 -x {0.0 4.0 1 ------- null}
d -t 0.764863682539682 -s 5 -d 7 -p tcp -e 296 -c 1 -i 15 -a 1 -x {0.0 4.0 1 ------- null}
+ -t 0.767490793650793 -s 3 -d 7 -p tcp -e 296 -c 1 -i 16 -a 1 -x {0.0 4.0 2 ------- null}
- -t 0.767490793650793 -s 3 -d 7 -p tcp -e 296 -c 1 -i 16 -a 1 -x {0.0 4.0 2 ------- null}
h -t 0.767490793650793 -s 3 -d 7 -p tcp -e 296 -c 1 -i 16 -a 1 -x {0.0 4.0 -1 ------- null}
d -t 0.767494793650793 -s 6 -d 7 -p tcp -e 296 -c 1 -i 16 -a 1 -x {0.0 4.0 2 ------- null}
d -t 0.767494793650793 -s 5 -d 7 -p tcp -e 296 -c 1 -i 16 -a 1 -x {0.0 4.0 2 ------- null}
+ -t 0.768749999999999 -s 1 -d 2 -p cbr -e 450 -c 0 -i 25 -a 0 -x {1.0 6.0 21 ------- null}
- -t 0.768749999999999 -s 1 -d 2 -p cbr -e 450 -c 0 -i 25 -a 0 -x {1.0 6.0 21 ------- null}
h -t 0.768749999999999 -s 1 -d 2 -p cbr -e 450 -c 0 -i 25 -a 0 -x {1.0 6.0 -1 ------- null}
r -t 0.770089714285714 -s 7 -d 6 -p cbr -e 450 -c 0 -i 10 -a 0 -x {1.0 6.0 8 ------- null}
r -t 0.770442857142857 -s 2 -d 3 -p cbr -e 450 -c 0 -i 22 -a 0 -x {1.0 6.0 18 ------- null}
h -t 0.770442857142857 -s 3 -d 7 -p cbr -e 450 -c 0 -i 22 -a 0 -x {1.0 6.0 18 ------- null}
+ -t 0.771490793650793 -s 3 -d 7 -p cbr -e 450 -c 0 -i 17 -a 0 -x {1.0 6.0 13 ------- null}
- -t 0.771490793650793 -s 3 -d 7 -p cbr -e 450 -c 0 -i 17 -a 0 -x {1.0 6.0 13 ------- null}
h -t 0.771490793650793 -s 3 -d 7 -p cbr -e 450 -c 0 -i 17 -a 0 -x {1.0 6.0 -1 ------- null}
d -t 0.771494793650793 -s 5 -d 7 -p cbr -e 450 -c 0 -i 17 -a 0 -x {1.0 6.0 13 ------- null}
d -t 0.771494793650793 -s 4 -d 7 -p cbr -e 450 -c 0 -i 17 -a 0 -x {1.0 6.0 13 ------- null}
r -t 0.772514285714285 -s 1 -d 2 -p cbr -e 450 -c 0 -i 24 -a 0 -x {1.0 6.0 20 ------- null}
+ -t 0.772514285714285 -s 2 -d 3 -p cbr -e 450 -c 0 -i 24 -a 0 -x {1.0 6.0 20 ------- null}
- -t 0.772514285714285 -s 2 -d 3 -p cbr -e 450 -c 0 -i 24 -a 0 -x {1.0 6.0 20 ------- null}
h -t 0.772514285714285 -s 2 -d 3 -p cbr -e 450 -c 0 -i 24 -a 0 -x {1.0 6.0 -1 ------- null}