+ 0.5 0 2 tcp 40 ------- 1 0.0 4.0 0 0
- 0.5 0 2 tcp 40 ------- 1 0.0 4.0 0 0
r 0.51016 0 2 tcp 40 ------- 1 0.0 4.0 0 0
+ 0.51016 2 3 tcp 40 ------- 1 0.0 4.0 0 0
- 0.51016 2 3 tcp 40 ------- 1 0.0 4.0 0 0
r 0.520516 2 3 tcp 40 ------- 1 0.0 4.0 0 0
h 0.520516 3 7 tcp 40 ------- 1 0.0 4.0 0 0
+ 0.560516 3 7 tcp 40 ------- 1 0.0 4.0 0 0
- 0.560516 3 7 tcp 40 ------- 1 0.0 4.0 0 0
d 0.56052 6 7 tcp 40 ------- 1 0.0 4.0 0 0
d 0.56052 5 7 tcp 40 ------- 1 0.0 4.0 0 0
+ 0.6 1 2 cbr 450 ------- 0 1.0 6.0 0 1
- 0.6 1 2 cbr 450 ------- 0 1.0 6.0 0 1
r 0.60052 7 4 tcp 40 ------- 1 0.0 4.0 0 0
h 0.60052 4 7 ack 40 ------- 1 4.0 0.0 0 2
+ 0.608036 1 2 cbr 450 ------- 0 1.0 6.0 1 3
- 0.608036 1 2 cbr 450 ------- 0 1.0 6.0 1 3
r 0.6118 1 2 cbr 450 ------- 0 1.0 6.0 0 1
+ 0.6118 2 3 cbr 450 ------- 0 1.0 6.0 0 1
- 0.6118 2 3 cbr 450 ------- 0 1.0 6.0 0 1
+ 0.616071 1 2 cbr 450 ------- 0 1.0 6.0 2 4
- 0.616071 1 2 cbr 450 ------- 0 1.0 6.0 2 4
r 0.619836 1 2 cbr 450 ------- 0 1.0 6.0 1 3
+ 0.619836 2 3 cbr 450 ------- 0 1.0 6.0 1 3
- 0.619836 2 3 cbr 450 ------- 0 1.0 6.0 1 3
+ 0.624107 1 2 cbr 450 ------- 0 1.0 6.0 3 5
- 0.624107 1 2 cbr 450 ------- 0 1.0 6.0 3 5
r 0.6258 2 3 cbr 450 ------- 0 1.0 6.0 0 1
h 0.6258 3 7 cbr 450 ------- 0 1.0 6.0 0 1
r 0.627871 1 2 cbr 450 ------- 0 1.0 6.0 2 4
+ 0.627871 2 3 cbr 450 ------- 0 1.0 6.0 2 4
- 0.627871 2 3 cbr 450 ------- 0 1.0 6.0 2 4
+ 0.632143 1 2 cbr 450 ------- 0 1.0 6.0 4 6
- 0.632143 1 2 cbr 450 ------- 0 1.0 6.0 4 6
r 0.633836 2 3 cbr 450 ------- 0 1.0 6.0 1 3
h 0.633836 3 7 cbr 450 ------- 0 1.0 6.0 1 3
r 0.635907 1 2 cbr 450 ------- 0 1.0 6.0 3 5
+ 0.635907 2 3 cbr 450 ------- 0 1.0 6.0 3 5
- 0.635907 2 3 cbr 450 ------- 0 1.0 6.0 3 5
+ 0.640179 1 2 cbr 450 ------- 0 1.0 6.0 5 7
- 0.640179 1 2 cbr 450 ------- 0 1.0 6.0 5 7
+ 0.64052 4 7 ack 40 ------- 1 4.0 0.0 0 2
- 0.64052 4 7 ack 40 ------- 1 4.0 0.0 0 2
d 0.640524 6 7 ack 40 ------- 1 4.0 0.0 0 2
d 0.640524 5 7 ack 40 ------- 1 4.0 0.0 0 2
r 0.641871 2 3 cbr 450 ------- 0 1.0 6.0 2 4
h 0.641871 3 7 cbr 450 ------- 0 1.0 6.0 2 4
r 0.643943 1 2 cbr 450 ------- 0 1.0 6.0 4 6
+ 0.643943 2 3 cbr 450 ------- 0 1.0 6.0 4 6
- 0.643943 2 3 cbr 450 ------- 0 1.0 6.0 4 6
+ 0.648214 1 2 cbr 450 ------- 0 1.0 6.0 6 8
- 0.648214 1 2 cbr 450 ------- 0 1.0 6.0 6 8
r 0.649907 2 3 cbr 450 ------- 0 1.0 6.0 3 5
h 0.649907 3 7 cbr 450 ------- 0 1.0 6.0 3 5
r 0.651979 1 2 cbr 450 ------- 0 1.0 6.0 5 7
+ 0.651979 2 3 cbr 450 ------- 0 1.0 6.0 5 7
- 0.651979 2 3 cbr 450 ------- 0 1.0 6.0 5 7
+ 0.65625 1 2 cbr 450 ------- 0 1.0 6.0 7 9
- 0.65625 1 2 cbr 450 ------- 0 1.0 6.0 7 9
r 0.657943 2 3 cbr 450 ------- 0 1.0 6.0 4 6
h 0.657943 3 7 cbr 450 ------- 0 1.0 6.0 4 6
r 0.660014 1 2 cbr 450 ------- 0 1.0 6.0 6 8
+ 0.660014 2 3 cbr 450 ------- 0 1.0 6.0 6 8
- 0.660014 2 3 cbr 450 ------- 0 1.0 6.0 6 8
+ 0.664286 1 2 cbr 450 ------- 0 1.0 6.0 8 10
- 0.664286 1 2 cbr 450 ------- 0 1.0 6.0 8 10
+ 0.6658 3 7 cbr 450 ------- 0 1.0 6.0 0 1
- 0.6658 3 7 cbr 450 ------- 0 1.0 6.0 0 1
d 0.665804 5 7 cbr 450 ------- 0 1.0 6.0 0 1
d 0.665804 4 7 cbr 450 ------- 0 1.0 6.0 0 1
r 0.665979 2 3 cbr 450 ------- 0 1.0 6.0 5 7
h 0.665979 3 7 cbr 450 ------- 0 1.0 6.0 5 7
r 0.66805 1 2 cbr 450 ------- 0 1.0 6.0 7 9
+ 0.66805 2 3 cbr 450 ------- 0 1.0 6.0 7 9
- 0.66805 2 3 cbr 450 ------- 0 1.0 6.0 7 9
+ 0.672321 1 2 cbr 450 ------- 0 1.0 6.0 9 11
- 0.672321 1 2 cbr 450 ------- 0 1.0 6.0 9 11
+ 0.673836 3 7 cbr 450 ------- 0 1.0 6.0 1 3
- 0.673836 3 7 cbr 450 ------- 0 1.0 6.0 1 3
d 0.67384 5 7 cbr 450 ------- 0 1.0 6.0 1 3
d 0.67384 4 7 cbr 450 ------- 0 1.0 6.0 1 3
r 0.674014 2 3 cbr 450 ------- 0 1.0 6.0 6 8
h 0.674014 3 7 cbr 450 ------- 0 1.0 6.0 6 8
r 0.676086 1 2 cbr 450 ------- 0 1.0 6.0 8 10
+ 0.676086 2 3 cbr 450 ------- 0 1.0 6.0 8 10
- 0.676086 2 3 cbr 450 ------- 0 1.0 6.0 8 10
+ 0.680357 1 2 cbr 450 ------- 0 1.0 6.0 10 12
- 0.680357 1 2 cbr 450 ------- 0 1.0 6.0 10 12
r 0.680524 7 3 ack 40 ------- 1 4.0 0.0 0 2
+ 0.680524 3 2 ack 40 ------- 1 4.0 0.0 0 2
- 0.680524 3 2 ack 40 ------- 1 4.0 0.0 0 2
+ 0.681871 3 7 cbr 450 ------- 0 1.0 6.0 2 4
- 0.681871 3 7 cbr 450 ------- 0 1.0 6.0 2 4
d 0.681875 5 7 cbr 450 ------- 0 1.0 6.0 2 4
d 0.681875 4 7 cbr 450 ------- 0 1.0 6.0 2 4
r 0.68205 2 3 cbr 450 ------- 0 1.0 6.0 7 9
h 0.68205 3 7 cbr 450 ------- 0 1.0 6.0 7 9
r 0.684121 1 2 cbr 450 ------- 0 1.0 6.0 9 11
+ 0.684121 2 3 cbr 450 ------- 0 1.0 6.0 9 11
- 0.684121 2 3 cbr 450 ------- 0 1.0 6.0 9 11
+ 0.688393 1 2 cbr 450 ------- 0 1.0 6.0 11 13
- 0.688393 1 2 cbr 450 ------- 0 1.0 6.0 11 13
+ 0.689907 3 7 cbr 450 ------- 0 1.0 6.0 3 5
- 0.689907 3 7 cbr 450 ------- 0 1.0 6.0 3 5
d 0.689911 5 7 cbr 450 ------- 0 1.0 6.0 3 5
d 0.689911 4 7 cbr 450 ------- 0 1.0 6.0 3 5
r 0.690086 2 3 cbr 450 ------- 0 1.0 6.0 8 10
h 0.690086 3 7 cbr 450 ------- 0 1.0 6.0 8 10
r 0.690879 3 2 ack 40 ------- 1 4.0 0.0 0 2
+ 0.690879 2 0 ack 40 ------- 1 4.0 0.0 0 2
- 0.690879 2 0 ack 40 ------- 1 4.0 0.0 0 2
r 0.692157 1 2 cbr 450 ------- 0 1.0 6.0 10 12
+ 0.692157 2 3 cbr 450 ------- 0 1.0 6.0 10 12
- 0.692157 2 3 cbr 450 ------- 0 1.0 6.0 10 12
+ 0.696429 1 2 cbr 450 ------- 0 1.0 6.0 12 14
- 0.696429 1 2 cbr 450 ------- 0 1.0 6.0 12 14
+ 0.697943 3 7 cbr 450 ------- 0 1.0 6.0 4 6
- 0.697943 3 7 cbr 450 ------- 0 1.0 6.0 4 6
d 0.697947 5 7 cbr 450 ------- 0 1.0 6.0 4 6
d 0.697947 4 7 cbr 450 ------- 0 1.0 6.0 4 6
r 0.698121 2 3 cbr 450 ------- 0 1.0 6.0 9 11
h 0.698121 3 7 cbr 450 ------- 0 1.0 6.0 9 11
r 0.700193 1 2 cbr 450 ------- 0 1.0 6.0 11 13
+ 0.700193 2 3 cbr 450 ------- 0 1.0 6.0 11 13
- 0.700193 2 3 cbr 450 ------- 0 1.0 6.0 11 13
r 0.701039 2 0 ack 40 ------- 1 4.0 0.0 0 2
+ 0.701039 0 2 tcp 296 ------- 1 0.0 4.0 1 15
- 0.701039 0 2 tcp 296 ------- 1 0.0 4.0 1 15
+ 0.701039 0 2 tcp 296 ------- 1 0.0 4.0 2 16
- 0.702223 0 2 tcp 296 ------- 1 0.0 4.0 2 16
+ 0.704464 1 2 cbr 450 ------- 0 1.0 6.0 13 17
- 0.704464 1 2 cbr 450 ------- 0 1.0 6.0 13 17
r 0.705804 7 6 cbr 450 ------- 0 1.0 6.0 0 1
+ 0.705979 3 7 cbr 450 ------- 0 1.0 6.0 5 7
- 0.705979 3 7 cbr 450 ------- 0 1.0 6.0 5 7
d 0.705983 5 7 cbr 450 ------- 0 1.0 6.0 5 7
d 0.705983 4 7 cbr 450 ------- 0 1.0 6.0 5 7
r 0.706157 2 3 cbr 450 ------- 0 1.0 6.0 10 12
h 0.706157 3 7 cbr 450 ------- 0 1.0 6.0 10 12
r 0.708229 1 2 cbr 450 ------- 0 1.0 6.0 12 14
+ 0.708229 2 3 cbr 450 ------- 0 1.0 6.0 12 14
- 0.708229 2 3 cbr 450 ------- 0 1.0 6.0 12 14
r 0.712223 0 2 tcp 296 ------- 1 0.0 4.0 1 15
+ 0.712223 2 3 tcp 296 ------- 1 0.0 4.0 1 15
- 0.712229 2 3 tcp 296 ------- 1 0.0 4.0 1 15
+ 0.7125 1 2 cbr 450 ------- 0 1.0 6.0 14 18
- 0.7125 1 2 cbr 450 ------- 0 1.0 6.0 14 18
r 0.713407 0 2 tcp 296 ------- 1 0.0 4.0 2 16
+ 0.713407 2 3 tcp 296 ------- 1 0.0 4.0 2 16
r 0.71384 7 6 cbr 450 ------- 0 1.0 6.0 1 3
+ 0.714014 3 7 cbr 450 ------- 0 1.0 6.0 6 8
- 0.714014 3 7 cbr 450 ------- 0 1.0 6.0 6 8
d 0.714018 5 7 cbr 450 ------- 0 1.0 6.0 6 8
d 0.714018 4 7 cbr 450 ------- 0 1.0 6.0 6 8
r 0.714193 2 3 cbr 450 ------- 0 1.0 6.0 11 13
h 0.714193 3 7 cbr 450 ------- 0 1.0 6.0 11 13
- 0.71486 2 3 tcp 296 ------- 1 0.0 4.0 2 16
r 0.716264 1 2 cbr 450 ------- 0 1.0 6.0 13 17
+ 0.716264 2 3 cbr 450 ------- 0 1.0 6.0 13 17
- 0.717491 2 3 cbr 450 ------- 0 1.0 6.0 13 17
+ 0.720536 1 2 cbr 450 ------- 0 1.0 6.0 15 19
- 0.720536 1 2 cbr 450 ------- 0 1.0 6.0 15 19
r 0.721875 7 6 cbr 450 ------- 0 1.0 6.0 2 4
+ 0.72205 3 7 cbr 450 ------- 0 1.0 6.0 7 9
- 0.72205 3 7 cbr 450 ------- 0 1.0 6.0 7 9
d 0.722054 5 7 cbr 450 ------- 0 1.0 6.0 7 9
d 0.722054 4 7 cbr 450 ------- 0 1.0 6.0 7 9
r 0.722229 2 3 cbr 450 ------- 0 1.0 6.0 12 14
h 0.722229 3 7 cbr 450 ------- 0 1.0 6.0 12 14
r 0.7243 1 2 cbr 450 ------- 0 1.0 6.0 14 18
+ 0.7243 2 3 cbr 450 ------- 0 1.0 6.0 14 18
- 0.7243 2 3 cbr 450 ------- 0 1.0 6.0 14 18
r 0.72486 2 3 tcp 296 ------- 1 0.0 4.0 1 15
h 0.72486 3 7 tcp 296 ------- 1 0.0 4.0 1 15
r 0.727491 2 3 tcp 296 ------- 1 0.0 4.0 2 16
h 0.727491 3 7 tcp 296 ------- 1 0.0 4.0 2 16
+ 0.728571 1 2 cbr 450 ------- 0 1.0 6.0 16 20
- 0.728571 1 2 cbr 450 ------- 0 1.0 6.0 16 20
r 0.729911 7 6 cbr 450 ------- 0 1.0 6.0 3 5
+ 0.730086 3 7 cbr 450 ------- 0 1.0 6.0 8 10
- 0.730086 3 7 cbr 450 ------- 0 1.0 6.0 8 10
d 0.73009 5 7 cbr 450 ------- 0 1.0 6.0 8 10
d 0.73009 4 7 cbr 450 ------- 0 1.0 6.0 8 10
r 0.731491 2 3 cbr 450 ------- 0 1.0 6.0 13 17
h 0.731491 3 7 cbr 450 ------- 0 1.0 6.0 13 17
r 0.732336 1 2 cbr 450 ------- 0 1.0 6.0 15 19
+ 0.732336 2 3 cbr 450 ------- 0 1.0 6.0 15 19
- 0.732336 2 3 cbr 450 ------- 0 1.0 6.0 15 19
+ 0.736607 1 2 cbr 450 ------- 0 1.0 6.0 17 21
- 0.736607 1 2 cbr 450 ------- 0 1.0 6.0 17 21
r 0.737947 7 6 cbr 450 ------- 0 1.0 6.0 4 6
+ 0.738121 3 7 cbr 450 ------- 0 1.0 6.0 9 11
- 0.738121 3 7 cbr 450 ------- 0 1.0 6.0 9 11
d 0.738125 5 7 cbr 450 ------- 0 1.0 6.0 9 11
d 0.738125 4 7 cbr 450 ------- 0 1.0 6.0 9 11
r 0.7383 2 3 cbr 450 ------- 0 1.0 6.0 14 18
h 0.7383 3 7 cbr 450 ------- 0 1.0 6.0 14 18
r 0.740371 1 2 cbr 450 ------- 0 1.0 6.0 16 20
+ 0.740371 2 3 cbr 450 ------- 0 1.0 6.0 16 20
- 0.740371 2 3 cbr 450 ------- 0 1.0 6.0 16 20
+ 0.744643 1 2 cbr 450 ------- 0 1.0 6.0 18 22
- 0.744643 1 2 cbr 450 ------- 0 1.0 6.0 18 22
r 0.745983 7 6 cbr 450 ------- 0 1.0 6.0 5 7
+ 0.746157 3 7 cbr 450 ------- 0 1.0 6.0 10 12
- 0.746157 3 7 cbr 450 ------- 0 1.0 6.0 10 12
d 0.746161 5 7 cbr 450 ------- 0 1.0 6.0 10 12
d 0.746161 4 7 cbr 450 ------- 0 1.0 6.0 10 12
r 0.746336 2 3 cbr 450 ------- 0 1.0 6.0 15 19
h 0.746336 3 7 cbr 450 ------- 0 1.0 6.0 15 19
r 0.748407 1 2 cbr 450 ------- 0 1.0 6.0 17 21
+ 0.748407 2 3 cbr 450 ------- 0 1.0 6.0 17 21
- 0.748407 2 3 cbr 450 ------- 0 1.0 6.0 17 21
+ 0.752679 1 2 cbr 450 ------- 0 1.0 6.0 19 23
- 0.752679 1 2 cbr 450 ------- 0 1.0 6.0 19 23
r 0.754018 7 6 cbr 450 ------- 0 1.0 6.0 6 8
+ 0.754193 3 7 cbr 450 ------- 0 1.0 6.0 11 13
- 0.754193 3 7 cbr 450 ------- 0 1.0 6.0 11 13
d 0.754197 5 7 cbr 450 ------- 0 1.0 6.0 11 13
d 0.754197 4 7 cbr 450 ------- 0 1.0 6.0 11 13
r 0.754371 2 3 cbr 450 ------- 0 1.0 6.0 16 20
h 0.754371 3 7 cbr 450 ------- 0 1.0 6.0 16 20
r 0.756443 1 2 cbr 450 ------- 0 1.0 6.0 18 22
+ 0.756443 2 3 cbr 450 ------- 0 1.0 6.0 18 22
- 0.756443 2 3 cbr 450 ------- 0 1.0 6.0 18 22
+ 0.760714 1 2 cbr 450 ------- 0 1.0 6.0 20 24
- 0.760714 1 2 cbr 450 ------- 0 1.0 6.0 20 24
r 0.762054 7 6 cbr 450 ------- 0 1.0 6.0 7 9
+ 0.762229 3 7 cbr 450 ------- 0 1.0 6.0 12 14
- 0.762229 3 7 cbr 450 ------- 0 1.0 6.0 12 14
d 0.762233 5 7 cbr 450 ------- 0 1.0 6.0 12 14
d 0.762233 4 7 cbr 450 ------- 0 1.0 6.0 12 14
r 0.762407 2 3 cbr 450 ------- 0 1.0 6.0 17 21
h 0.762407 3 7 cbr 450 ------- 0 1.0 6.0 17 21
r 0.764479 1 2 cbr 450 ------- 0 1.0 6.0 19 23
+ 0.764479 2 3 cbr 450 ------- 0 1.0 6.0 19 23
- 0.764479 2 3 cbr 450 ------- 0 1.0 6.0 19 23
+ 0.76486 3 7 tcp 296 ------- 1 0.0 4.0 1 15
- 0.76486 3 7 tcp 296 ------- 1 0.0 4.0 1 15
d 0.764864 6 7 tcp 296 ------- 1 0.0 4.0 1 15
d 0.764864 5 7 tcp 296 ------- 1 0.0 4.0 1 15
+ 0.767491 3 7 tcp 296 ------- 1 0.0 4.0 2 16
- 0.767491 3 7 tcp 296 ------- 1 0.0 4.0 2 16
d 0.767495 6 7 tcp 296 ------- 1 0.0 4.0 2 16
d 0.767495 5 7 tcp 296 ------- 1 0.0 4.0 2 16
+ 0.76875 1 2 cbr 450 ------- 0 1.0 6.0 21 25
- 0.76875 1 2 cbr 450 ------- 0 1.0 6.0 21 25
r 0.77009 7 6 cbr 450 ------- 0 1.0 6.0 8 10
r 0.770443 2 3 cbr 450 ------- 0 1.0 6.0 18 22
h 0.770443 3 7 cbr 450 ------- 0 1.0 6.0 18 22
+ 0.771491 3 7 cbr 450 ------- 0 1.0 6.0 13 17
- 0.771491 3 7 cbr 450 ------- 0 1.0 6.0 13 17
d 0.771495 5 7 cbr 450 ------- 0 1.0 6.0 13 17
d 0.771495 4 7 cbr 450 ------- 0 1.0 6.0 13 17
r 0.772514 1 2 cbr 450 ------- 0 1.0 6.0 20 24
+ 0.772514 2 3 cbr 450 ------- 0 1.0 6.0 20 24
- 0.772514 2 3 cbr 450 ------- 0 1.0 6.0 20 24
+ 0.776786 1 2 cbr 450 ------- 0 1.0 6.0 22 26
- 0.776786 1 2 cbr 450 ------- 0 1.0 6.0 22 26
r 0.778125 7 6 cbr 450 ------- 0 1.0 6.0 9 11
+ 0.7783 3 7 cbr 450 ------- 0 1.0 6.0 14 18
- 0.7783 3 7 cbr 450 ------- 0 1.0 6.0 14 18
d 0.778304 5 7 cbr 450 ------- 0 1.0 6.0 14 18
d 0.778304 4 7 cbr 450 ------- 0 1.0 6.0 14 18
r 0.778479 2 3 cbr 450 ------- 0 1.0 6.0 19 23
h 0.778479 3 7 cbr 450 ------- 0 1.0 6.0 19 23
r 0.78055 1 2 cbr 450 ------- 0 1.0 6.0 21 25
+ 0.78055 2 3 cbr 450 ------- 0 1.0 6.0 21 25
- 0.78055 2 3 cbr 450 ------- 0 1.0 6.0 21 25
+ 0.784821 1 2 cbr 450 ------- 0 1.0 6.0 23 27
- 0.784821 1 2 cbr 450 ------- 0 1.0 6.0 23 27
r 0.786161 7 6 cbr 450 ------- 0 1.0 6.0 10 12
+ 0.786336 3 7 cbr 450 ------- 0 1.0 6.0 15 19
- 0.786336 3 7 cbr 450 ------- 0 1.0 6.0 15 19
d 0.78634 5 7 cbr 450 ------- 0 1.0 6.0 15 19
d 0.78634 4 7 cbr 450 ------- 0 1.0 6.0 15 19
r 0.786514 2 3 cbr 450 ------- 0 1.0 6.0 20 24
h 0.786514 3 7 cbr 450 ------- 0 1.0 6.0 20 24
r 0.788586 1 2 cbr 450 ------- 0 1.0 6.0 22 26
+ 0.788586 2 3 cbr 450 ------- 0 1.0 6.0 22 26
- 0.788586 2 3 cbr 450 ------- 0 1.0 6.0 22 26
+ 0.792857 1 2 cbr 450 ------- 0 1.0 6.0 24 28
- 0.792857 1 2 cbr 450 ------- 0 1.0 6.0 24 28
r 0.794197 7 6 cbr 450 ------- 0 1.0 6.0 11 13
+ 0.794371 3 7 cbr 450 ------- 0 1.0 6.0 16 20
- 0.794371 3 7 cbr 450 ------- 0 1.0 6.0 16 20
d 0.794375 5 7 cbr 450 ------- 0 1.0 6.0 16 20
d 0.794375 4 7 cbr 450 ------- 0 1.0 6.0 16 20
r 0.79455 2 3 cbr 450 ------- 0 1.0 6.0 21 25
h 0.79455 3 7 cbr 450 ------- 0 1.0 6.0 21 25
r 0.796621 1 2 cbr 450 ------- 0 1.0 6.0 23 27
+ 0.796621 2 3 cbr 450 ------- 0 1.0 6.0 23 27
- 0.796621 2 3 cbr 450 ------- 0 1.0 6.0 23 27
+ 0.800893 1 2 cbr 450 ------- 0 1.0 6.0 25 29
- 0.800893 1 2 cbr 450 ------- 0 1.0 6.0 25 29
r 0.802233 7 6 cbr 450 ------- 0 1.0 6.0 12 14
+ 0.802407 3 7 cbr 450 ------- 0 1.0 6.0 17 21
- 0.802407 3 7 cbr 450 ------- 0 1.0 6.0 17 21
d 0.802411 5 7 cbr 450 ------- 0 1.0 6.0 17 21
d 0.802411 4 7 cbr 450 ------- 0 1.0 6.0 17 21
r 0.802586 2 3 cbr 450 ------- 0 1.0 6.0 22 26
h 0.802586 3 7 cbr 450 ------- 0 1.0 6.0 22 26
r 0.804657 1 2 cbr 450 ------- 0 1.0 6.0 24 28
+ 0.804657 2 3 cbr 450 ------- 0 1.0 6.0 24 28
- 0.804657 2 3 cbr 450 ------- 0 1.0 6.0 24 28
r 0.804864 7 4 tcp 296 ------- 1 0.0 4.0 1 15
h 0.804864 4 7 ack 40 ------- 1 4.0 0.0 1 30
r 0.807495 7 4 tcp 296 ------- 1 0.0 4.0 2 16
h 0.807495 4 7 ack 40 ------- 1 4.0 0.0 2 31
+ 0.808929 1 2 cbr 450 ------- 0 1.0 6.0 26 32
- 0.808929 1 2 cbr 450 ------- 0 1.0 6.0 26 32
+ 0.810443 3 7 cbr 450 ------- 0 1.0 6.0 18 22
- 0.810443 3 7 cbr 450 ------- 0 1.0 6.0 18 22
d 0.810447 5 7 cbr 450 ------- 0 1.0 6.0 18 22
d 0.810447 4 7 cbr 450 ------- 0 1.0 6.0 18 22
r 0.810621 2 3 cbr 450 ------- 0 1.0 6.0 23 27
h 0.810621 3 7 cbr 450 ------- 0 1.0 6.0 23 27
r 0.811495 7 6 cbr 450 ------- 0 1.0 6.0 13 17
r 0.812693 1 2 cbr 450 ------- 0 1.0 6.0 25 29
+ 0.812693 2 3 cbr 450 ------- 0 1.0 6.0 25 29
- 0.812693 2 3 cbr 450 ------- 0 1.0 6.0 25 29
+ 0.816964 1 2 cbr 450 ------- 0 1.0 6.0 27 33
- 0.816964 1 2 cbr 450 ------- 0 1.0 6.0 27 33
r 0.818304 7 6 cbr 450 ------- 0 1.0 6.0 14 18
+ 0.818479 3 7 cbr 450 ------- 0 1.0 6.0 19 23
- 0.818479 3 7 cbr 450 ------- 0 1.0 6.0 19 23
d 0.818483 5 7 cbr 450 ------- 0 1.0 6.0 19 23
d 0.818483 4 7 cbr 450 ------- 0 1.0 6.0 19 23
r 0.818657 2 3 cbr 450 ------- 0 1.0 6.0 24 28
h 0.818657 3 7 cbr 450 ------- 0 1.0 6.0 24 28
r 0.820729 1 2 cbr 450 ------- 0 1.0 6.0 26 32
+ 0.820729 2 3 cbr 450 ------- 0 1.0 6.0 26 32
- 0.820729 2 3 cbr 450 ------- 0 1.0 6.0 26 32
+ 0.825 1 2 cbr 450 ------- 0 1.0 6.0 28 34
- 0.825 1 2 cbr 450 ------- 0 1.0 6.0 28 34
r 0.82634 7 6 cbr 450 ------- 0 1.0 6.0 15 19
+ 0.826514 3 7 cbr 450 ------- 0 1.0 6.0 20 24
- 0.826514 3 7 cbr 450 ------- 0 1.0 6.0 20 24
d 0.826518 5 7 cbr 450 ------- 0 1.0 6.0 20 24
d 0.826518 4 7 cbr 450 ------- 0 1.0 6.0 20 24
r 0.826693 2 3 cbr 450 ------- 0 1.0 6.0 25 29
h 0.826693 3 7 cbr 450 ------- 0 1.0 6.0 25 29
r 0.828764 1 2 cbr 450 ------- 0 1.0 6.0 27 33
+ 0.828764 2 3 cbr 450 ------- 0 1.0 6.0 27 33
- 0.828764 2 3 cbr 450 ------- 0 1.0 6.0 27 33
+ 0.833036 1 2 cbr 450 ------- 0 1.0 6.0 29 35
- 0.833036 1 2 cbr 450 ------- 0 1.0 6.0 29 35
r 0.834375 7 6 cbr 450 ------- 0 1.0 6.0 16 20
+ 0.83455 3 7 cbr 450 ------- 0 1.0 6.0 21 25
- 0.83455 3 7 cbr 450 ------- 0 1.0 6.0 21 25
d 0.834554 5 7 cbr 450 ------- 0 1.0 6.0 21 25
d 0.834554 4 7 cbr 450 ------- 0 1.0 6.0 21 25
r 0.834729 2 3 cbr 450 ------- 0 1.0 6.0 26 32
h 0.834729 3 7 cbr 450 ------- 0 1.0 6.0 26 32
r 0.8368 1 2 cbr 450 ------- 0 1.0 6.0 28 34
+ 0.8368 2 3 cbr 450 ------- 0 1.0 6.0 28 34
- 0.8368 2 3 cbr 450 ------- 0 1.0 6.0 28 34
+ 0.841071 1 2 cbr 450 ------- 0 1.0 6.0 30 36
- 0.841071 1 2 cbr 450 ------- 0 1.0 6.0 30 36
r 0.842411 7 6 cbr 450 ------- 0 1.0 6.0 17 21
+ 0.842586 3 7 cbr 450 ------- 0 1.0 6.0 22 26
- 0.842586 3 7 cbr 450 ------- 0 1.0 6.0 22 26
d 0.84259 5 7 cbr 450 ------- 0 1.0 6.0 22 26
d 0.84259 4 7 cbr 450 ------- 0 1.0 6.0 22 26
r 0.842764 2 3 cbr 450 ------- 0 1.0 6.0 27 33
h 0.842764 3 7 cbr 450 ------- 0 1.0 6.0 27 33
r 0.844836 1 2 cbr 450 ------- 0 1.0 6.0 29 35
+ 0.844836 2 3 cbr 450 ------- 0 1.0 6.0 29 35
- 0.844836 2 3 cbr 450 ------- 0 1.0 6.0 29 35
+ 0.844864 4 7 ack 40 ------- 1 4.0 0.0 1 30
- 0.844864 4 7 ack 40 ------- 1 4.0 0.0 1 30
d 0.844868 6 7 ack 40 ------- 1 4.0 0.0 1 30
d 0.844868 5 7 ack 40 ------- 1 4.0 0.0 1 30
+ 0.847495 4 7 ack 40 ------- 1 4.0 0.0 2 31
- 0.847495 4 7 ack 40 ------- 1 4.0 0.0 2 31
d 0.847499 6 7 ack 40 ------- 1 4.0 0.0 2 31
d 0.847499 5 7 ack 40 ------- 1 4.0 0.0 2 31
+ 0.849107 1 2 cbr 450 ------- 0 1.0 6.0 31 37
- 0.849107 1 2 cbr 450 ------- 0 1.0 6.0 31 37
r 0.850447 7 6 cbr 450 ------- 0 1.0 6.0 18 22
+ 0.850621 3 7 cbr 450 ------- 0 1.0 6.0 23 27
- 0.850621 3 7 cbr 450 ------- 0 1.0 6.0 23 27
d 0.850625 5 7 cbr 450 ------- 0 1.0 6.0 23 27
d 0.850625 4 7 cbr 450 ------- 0 1.0 6.0 23 27
r 0.8508 2 3 cbr 450 ------- 0 1.0 6.0 28 34
h 0.8508 3 7 cbr 450 ------- 0 1.0 6.0 28 34
r 0.852871 1 2 cbr 450 ------- 0 1.0 6.0 30 36
+ 0.852871 2 3 cbr 450 ------- 0 1.0 6.0 30 36
- 0.852871 2 3 cbr 450 ------- 0 1.0 6.0 30 36
+ 0.857143 1 2 cbr 450 ------- 0 1.0 6.0 32 38
- 0.857143 1 2 cbr 450 ------- 0 1.0 6.0 32 38
r 0.858483 7 6 cbr 450 ------- 0 1.0 6.0 19 23
+ 0.858657 3 7 cbr 450 ------- 0 1.0 6.0 24 28
- 0.858657 3 7 cbr 450 ------- 0 1.0 6.0 24 28
d 0.858661 5 7 cbr 450 ------- 0 1.0 6.0 24 28
d 0.858661 4 7 cbr 450 ------- 0 1.0 6.0 24 28
r 0.858836 2 3 cbr 450 ------- 0 1.0 6.0 29 35
h 0.858836 3 7 cbr 450 ------- 0 1.0 6.0 29 35
r 0.860907 1 2 cbr 450 ------- 0 1.0 6.0 31 37
+ 0.860907 2 3 cbr 450 ------- 0 1.0 6.0 31 37
- 0.860907 2 3 cbr 450 ------- 0 1.0 6.0 31 37
+ 0.865179 1 2 cbr 450 ------- 0 1.0 6.0 33 39
- 0.865179 1 2 cbr 450 ------- 0 1.0 6.0 33 39
r 0.866518 7 6 cbr 450 ------- 0 1.0 6.0 20 24
+ 0.866693 3 7 cbr 450 ------- 0 1.0 6.0 25 29
- 0.866693 3 7 cbr 450 ------- 0 1.0 6.0 25 29
d 0.866697 5 7 cbr 450 ------- 0 1.0 6.0 25 29
d 0.866697 4 7 cbr 450 ------- 0 1.0 6.0 25 29
r 0.866871 2 3 cbr 450 ------- 0 1.0 6.0 30 36
h 0.866871 3 7 cbr 450 ------- 0 1.0 6.0 30 36
r 0.868943 1 2 cbr 450 ------- 0 1.0 6.0 32 38
+ 0.868943 2 3 cbr 450 ------- 0 1.0 6.0 32 38
- 0.868943 2 3 cbr 450 ------- 0 1.0 6.0 32 38
+ 0.873214 1 2 cbr 450 ------- 0 1.0 6.0 34 40
- 0.873214 1 2 cbr 450 ------- 0 1.0 6.0 34 40
r 0.874554 7 6 cbr 450 ------- 0 1.0 6.0 21 25
+ 0.874729 3 7 cbr 450 ------- 0 1.0 6.0 26 32
- 0.874729 3 7 cbr 450 ------- 0 1.0 6.0 26 32
d 0.874733 5 7 cbr 450 ------- 0 1.0 6.0 26 32
d 0.874733 4 7 cbr 450 ------- 0 1.0 6.0 26 32
r 0.874907 2 3 cbr 450 ------- 0 1.0 6.0 31 37
h 0.874907 3 7 cbr 450 ------- 0 1.0 6.0 31 37
r 0.876979 1 2 cbr 450 ------- 0 1.0 6.0 33 39
+ 0.876979 2 3 cbr 450 ------- 0 1.0 6.0 33 39
- 0.876979 2 3 cbr 450 ------- 0 1.0 6.0 33 39
+ 0.88125 1 2 cbr 450 ------- 0 1.0 6.0 35 41
- 0.88125 1 2 cbr 450 ------- 0 1.0 6.0 35 41
r 0.88259 7 6 cbr 450 ------- 0 1.0 6.0 22 26
+ 0.882764 3 7 cbr 450 ------- 0 1.0 6.0 27 33
- 0.882764 3 7 cbr 450 ------- 0 1.0 6.0 27 33
d 0.882768 5 7 cbr 450 ------- 0 1.0 6.0 27 33
d 0.882768 4 7 cbr 450 ------- 0 1.0 6.0 27 33
r 0.882943 2 3 cbr 450 ------- 0 1.0 6.0 32 38
h 0.882943 3 7 cbr 450 ------- 0 1.0 6.0 32 38
r 0.884868 7 3 ack 40 ------- 1 4.0 0.0 1 30
+ 0.884868 3 2 ack 40 ------- 1 4.0 0.0 1 30
- 0.884868 3 2 ack 40 ------- 1 4.0 0.0 1 30
r 0.885014 1 2 cbr 450 ------- 0 1.0 6.0 34 40
+ 0.885014 2 3 cbr 450 ------- 0 1.0 6.0 34 40
- 0.885014 2 3 cbr 450 ------- 0 1.0 6.0 34 40
r 0.887499 7 3 ack 40 ------- 1 4.0 0.0 2 31
+ 0.887499 3 2 ack 40 ------- 1 4.0 0.0 2 31
- 0.887499 3 2 ack 40 ------- 1 4.0 0.0 2 31
+ 0.889286 1 2 cbr 450 ------- 0 1.0 6.0 36 42
- 0.889286 1 2 cbr 450 ------- 0 1.0 6.0 36 42
r 0.890625 7 6 cbr 450 ------- 0 1.0 6.0 23 27
+ 0.8908 3 7 cbr 450 ------- 0 1.0 6.0 28 34
- 0.8908 3 7 cbr 450 ------- 0 1.0 6.0 28 34
d 0.890804 5 7 cbr 450 ------- 0 1.0 6.0 28 34
d 0.890804 4 7 cbr 450 ------- 0 1.0 6.0 28 34
r 0.890979 2 3 cbr 450 ------- 0 1.0 6.0 33 39
h 0.890979 3 7 cbr 450 ------- 0 1.0 6.0 33 39
r 0.89305 1 2 cbr 450 ------- 0 1.0 6.0 35 41
+ 0.89305 2 3 cbr 450 ------- 0 1.0 6.0 35 41
- 0.89305 2 3 cbr 450 ------- 0 1.0 6.0 35 41
r 0.895223 3 2 ack 40 ------- 1 4.0 0.0 1 30
+ 0.895223 2 0 ack 40 ------- 1 4.0 0.0 1 30
- 0.895223 2 0 ack 40 ------- 1 4.0 0.0 1 30
+ 0.897321 1 2 cbr 450 ------- 0 1.0 6.0 37 43
- 0.897321 1 2 cbr 450 ------- 0 1.0 6.0 37 43
r 0.897854 3 2 ack 40 ------- 1 4.0 0.0 2 31
+ 0.897854 2 0 ack 40 ------- 1 4.0 0.0 2 31
- 0.897854 2 0 ack 40 ------- 1 4.0 0.0 2 31
r 0.898661 7 6 cbr 450 ------- 0 1.0 6.0 24 28
+ 0.898836 3 7 cbr 450 ------- 0 1.0 6.0 29 35
- 0.898836 3 7 cbr 450 ------- 0 1.0 6.0 29 35
d 0.89884 5 7 cbr 450 ------- 0 1.0 6.0 29 35
d 0.89884 4 7 cbr 450 ------- 0 1.0 6.0 29 35
r 0.899014 2 3 cbr 450 ------- 0 1.0 6.0 34 40
h 0.899014 3 7 cbr 450 ------- 0 1.0 6.0 34 40
r 0.901086 1 2 cbr 450 ------- 0 1.0 6.0 36 42
+ 0.901086 2 3 cbr 450 ------- 0 1.0 6.0 36 42
- 0.901086 2 3 cbr 450 ------- 0 1.0 6.0 36 42
+ 0.905357 1 2 cbr 450 ------- 0 1.0 6.0 38 44
- 0.905357 1 2 cbr 450 ------- 0 1.0 6.0 38 44
r 0.905383 2 0 ack 40 ------- 1 4.0 0.0 1 30
+ 0.905383 0 2 tcp 296 ------- 1 0.0 4.0 3 45
- 0.905383 0 2 tcp 296 ------- 1 0.0 4.0 3 45
+ 0.905383 0 2 tcp 296 ------- 1 0.0 4.0 4 46
- 0.906567 0 2 tcp 296 ------- 1 0.0 4.0 4 46
r 0.906697 7 6 cbr 450 ------- 0 1.0 6.0 25 29
+ 0.906871 3 7 cbr 450 ------- 0 1.0 6.0 30 36
- 0.906871 3 7 cbr 450 ------- 0 1.0 6.0 30 36
d 0.906875 5 7 cbr 450 ------- 0 1.0 6.0 30 36
d 0.906875 4 7 cbr 450 ------- 0 1.0 6.0 30 36
r 0.90705 2 3 cbr 450 ------- 0 1.0 6.0 35 41
h 0.90705 3 7 cbr 450 ------- 0 1.0 6.0 35 41
r 0.908014 2 0 ack 40 ------- 1 4.0 0.0 2 31
+ 0.908014 0 2 tcp 296 ------- 1 0.0 4.0 5 47
- 0.908014 0 2 tcp 296 ------- 1 0.0 4.0 5 47
+ 0.908014 0 2 tcp 296 ------- 1 0.0 4.0 6 48
r 0.909121 1 2 cbr 450 ------- 0 1.0 6.0 37 43
+ 0.909121 2 3 cbr 450 ------- 0 1.0 6.0 37 43
- 0.909121 2 3 cbr 450 ------- 0 1.0 6.0 37 43
- 0.909198 0 2 tcp 296 ------- 1 0.0 4.0 6 48
+ 0.913393 1 2 cbr 450 ------- 0 1.0 6.0 39 49
- 0.913393 1 2 cbr 450 ------- 0 1.0 6.0 39 49
r 0.914733 7 6 cbr 450 ------- 0 1.0 6.0 26 32
+ 0.914907 3 7 cbr 450 ------- 0 1.0 6.0 31 37
- 0.914907 3 7 cbr 450 ------- 0 1.0 6.0 31 37
d 0.914911 5 7 cbr 450 ------- 0 1.0 6.0 31 37
d 0.914911 4 7 cbr 450 ------- 0 1.0 6.0 31 37
r 0.915086 2 3 cbr 450 ------- 0 1.0 6.0 36 42
h 0.915086 3 7 cbr 450 ------- 0 1.0 6.0 36 42
r 0.916567 0 2 tcp 296 ------- 1 0.0 4.0 3 45
+ 0.916567 2 3 tcp 296 ------- 1 0.0 4.0 3 45
- 0.916567 2 3 tcp 296 ------- 1 0.0 4.0 3 45
r 0.917157 1 2 cbr 450 ------- 0 1.0 6.0 38 44
+ 0.917157 2 3 cbr 450 ------- 0 1.0 6.0 38 44
r 0.917751 0 2 tcp 296 ------- 1 0.0 4.0 4 46
+ 0.917751 2 3 tcp 296 ------- 1 0.0 4.0 4 46
r 0.919198 0 2 tcp 296 ------- 1 0.0 4.0 5 47
+ 0.919198 2 3 tcp 296 ------- 1 0.0 4.0 5 47
- 0.919198 2 3 cbr 450 ------- 0 1.0 6.0 38 44
r 0.920382 0 2 tcp 296 ------- 1 0.0 4.0 6 48
+ 0.920382 2 3 tcp 296 ------- 1 0.0 4.0 6 48
+ 0.921429 1 2 cbr 450 ------- 0 1.0 6.0 40 50
- 0.921429 1 2 cbr 450 ------- 0 1.0 6.0 40 50
r 0.922768 7 6 cbr 450 ------- 0 1.0 6.0 27 33
+ 0.922943 3 7 cbr 450 ------- 0 1.0 6.0 32 38
- 0.922943 3 7 cbr 450 ------- 0 1.0 6.0 32 38
d 0.922947 5 7 cbr 450 ------- 0 1.0 6.0 32 38
d 0.922947 4 7 cbr 450 ------- 0 1.0 6.0 32 38
r 0.923121 2 3 cbr 450 ------- 0 1.0 6.0 37 43
h 0.923121 3 7 cbr 450 ------- 0 1.0 6.0 37 43
- 0.923198 2 3 tcp 296 ------- 1 0.0 4.0 4 46
r 0.925193 1 2 cbr 450 ------- 0 1.0 6.0 39 49
+ 0.925193 2 3 cbr 450 ------- 0 1.0 6.0 39 49
- 0.925829 2 3 tcp 296 ------- 1 0.0 4.0 5 47
- 0.928461 2 3 tcp 296 ------- 1 0.0 4.0 6 48
r 0.929198 2 3 tcp 296 ------- 1 0.0 4.0 3 45
h 0.929198 3 7 tcp 296 ------- 1 0.0 4.0 3 45
+ 0.929464 1 2 cbr 450 ------- 0 1.0 6.0 41 51
- 0.929464 1 2 cbr 450 ------- 0 1.0 6.0 41 51
r 0.930804 7 6 cbr 450 ------- 0 1.0 6.0 28 34
+ 0.930979 3 7 cbr 450 ------- 0 1.0 6.0 33 39
- 0.930979 3 7 cbr 450 ------- 0 1.0 6.0 33 39
d 0.930983 5 7 cbr 450 ------- 0 1.0 6.0 33 39
d 0.930983 4 7 cbr 450 ------- 0 1.0 6.0 33 39
- 0.931092 2 3 cbr 450 ------- 0 1.0 6.0 39 49
r 0.933198 2 3 cbr 450 ------- 0 1.0 6.0 38 44
h 0.933198 3 7 cbr 450 ------- 0 1.0 6.0 38 44
r 0.933229 1 2 cbr 450 ------- 0 1.0 6.0 40 50
+ 0.933229 2 3 cbr 450 ------- 0 1.0 6.0 40 50
- 0.935092 2 3 cbr 450 ------- 0 1.0 6.0 40 50
r 0.935829 2 3 tcp 296 ------- 1 0.0 4.0 4 46
h 0.935829 3 7 tcp 296 ------- 1 0.0 4.0 4 46
+ 0.9375 1 2 cbr 450 ------- 0 1.0 6.0 42 52
- 0.9375 1 2 cbr 450 ------- 0 1.0 6.0 42 52
r 0.938461 2 3 tcp 296 ------- 1 0.0 4.0 5 47
h 0.938461 3 7 tcp 296 ------- 1 0.0 4.0 5 47
r 0.93884 7 6 cbr 450 ------- 0 1.0 6.0 29 35
+ 0.939014 3 7 cbr 450 ------- 0 1.0 6.0 34 40
- 0.939014 3 7 cbr 450 ------- 0 1.0 6.0 34 40
d 0.939018 5 7 cbr 450 ------- 0 1.0 6.0 34 40
d 0.939018 4 7 cbr 450 ------- 0 1.0 6.0 34 40
r 0.941092 2 3 tcp 296 ------- 1 0.0 4.0 6 48
h 0.941092 3 7 tcp 296 ------- 1 0.0 4.0 6 48
r 0.941264 1 2 cbr 450 ------- 0 1.0 6.0 41 51
+ 0.941264 2 3 cbr 450 ------- 0 1.0 6.0 41 51
- 0.941264 2 3 cbr 450 ------- 0 1.0 6.0 41 51
r 0.945092 2 3 cbr 450 ------- 0 1.0 6.0 39 49
h 0.945092 3 7 cbr 450 ------- 0 1.0 6.0 39 49
+ 0.945536 1 2 cbr 450 ------- 0 1.0 6.0 43 53
- 0.945536 1 2 cbr 450 ------- 0 1.0 6.0 43 53
r 0.946875 7 6 cbr 450 ------- 0 1.0 6.0 30 36
+ 0.94705 3 7 cbr 450 ------- 0 1.0 6.0 35 41
- 0.94705 3 7 cbr 450 ------- 0 1.0 6.0 35 41
d 0.947054 5 7 cbr 450 ------- 0 1.0 6.0 35 41
d 0.947054 4 7 cbr 450 ------- 0 1.0 6.0 35 41
r 0.949092 2 3 cbr 450 ------- 0 1.0 6.0 40 50
h 0.949092 3 7 cbr 450 ------- 0 1.0 6.0 40 50
r 0.9493 1 2 cbr 450 ------- 0 1.0 6.0 42 52
+ 0.9493 2 3 cbr 450 ------- 0 1.0 6.0 42 52
- 0.9493 2 3 cbr 450 ------- 0 1.0 6.0 42 52
+ 0.953571 1 2 cbr 450 ------- 0 1.0 6.0 44 54
- 0.953571 1 2 cbr 450 ------- 0 1.0 6.0 44 54
r 0.954911 7 6 cbr 450 ------- 0 1.0 6.0 31 37
+ 0.955086 3 7 cbr 450 ------- 0 1.0 6.0 36 42
- 0.955086 3 7 cbr 450 ------- 0 1.0 6.0 36 42
d 0.95509 5 7 cbr 450 ------- 0 1.0 6.0 36 42
d 0.95509 4 7 cbr 450 ------- 0 1.0 6.0 36 42
r 0.955264 2 3 cbr 450 ------- 0 1.0 6.0 41 51
h 0.955264 3 7 cbr 450 ------- 0 1.0 6.0 41 51
r 0.957336 1 2 cbr 450 ------- 0 1.0 6.0 43 53
+ 0.957336 2 3 cbr 450 ------- 0 1.0 6.0 43 53
- 0.957336 2 3 cbr 450 ------- 0 1.0 6.0 43 53
+ 0.961607 1 2 cbr 450 ------- 0 1.0 6.0 45 55
- 0.961607 1 2 cbr 450 ------- 0 1.0 6.0 45 55
r 0.962947 7 6 cbr 450 ------- 0 1.0 6.0 32 38
+ 0.963121 3 7 cbr 450 ------- 0 1.0 6.0 37 43
- 0.963121 3 7 cbr 450 ------- 0 1.0 6.0 37 43
d 0.963125 5 7 cbr 450 ------- 0 1.0 6.0 37 43
d 0.963125 4 7 cbr 450 ------- 0 1.0 6.0 37 43
r 0.9633 2 3 cbr 450 ------- 0 1.0 6.0 42 52
h 0.9633 3 7 cbr 450 ------- 0 1.0 6.0 42 52
r 0.965371 1 2 cbr 450 ------- 0 1.0 6.0 44 54
+ 0.965371 2 3 cbr 450 ------- 0 1.0 6.0 44 54
- 0.965371 2 3 cbr 450 ------- 0 1.0 6.0 44 54
+ 0.969198 3 7 tcp 296 ------- 1 0.0 4.0 3 45
- 0.969198 3 7 tcp 296 ------- 1 0.0 4.0 3 45
d 0.969202 6 7 tcp 296 ------- 1 0.0 4.0 3 45
d 0.969202 5 7 tcp 296 ------- 1 0.0 4.0 3 45
+ 0.969643 1 2 cbr 450 ------- 0 1.0 6.0 46 56
- 0.969643 1 2 cbr 450 ------- 0 1.0 6.0 46 56
r 0.970983 7 6 cbr 450 ------- 0 1.0 6.0 33 39
r 0.971336 2 3 cbr 450 ------- 0 1.0 6.0 43 53
h 0.971336 3 7 cbr 450 ------- 0 1.0 6.0 43 53
+ 0.973198 3 7 cbr 450 ------- 0 1.0 6.0 38 44
- 0.973198 3 7 cbr 450 ------- 0 1.0 6.0 38 44
d 0.973202 5 7 cbr 450 ------- 0 1.0 6.0 38 44
d 0.973202 4 7 cbr 450 ------- 0 1.0 6.0 38 44
r 0.973407 1 2 cbr 450 ------- 0 1.0 6.0 45 55
+ 0.973407 2 3 cbr 450 ------- 0 1.0 6.0 45 55
- 0.973407 2 3 cbr 450 ------- 0 1.0 6.0 45 55
+ 0.975829 3 7 tcp 296 ------- 1 0.0 4.0 4 46
- 0.975829 3 7 tcp 296 ------- 1 0.0 4.0 4 46
d 0.975833 6 7 tcp 296 ------- 1 0.0 4.0 4 46
d 0.975833 5 7 tcp 296 ------- 1 0.0 4.0 4 46
+ 0.977679 1 2 cbr 450 ------- 0 1.0 6.0 47 57
- 0.977679 1 2 cbr 450 ------- 0 1.0 6.0 47 57
+ 0.978461 3 7 tcp 296 ------- 1 0.0 4.0 5 47
- 0.978461 3 7 tcp 296 ------- 1 0.0 4.0 5 47
d 0.978465 6 7 tcp 296 ------- 1 0.0 4.0 5 47
d 0.978465 5 7 tcp 296 ------- 1 0.0 4.0 5 47
r 0.979018 7 6 cbr 450 ------- 0 1.0 6.0 34 40
r 0.979371 2 3 cbr 450 ------- 0 1.0 6.0 44 54
h 0.979371 3 7 cbr 450 ------- 0 1.0 6.0 44 54
+ 0.981092 3 7 tcp 296 ------- 1 0.0 4.0 6 48
- 0.981092 3 7 tcp 296 ------- 1 0.0 4.0 6 48
d 0.981096 6 7 tcp 296 ------- 1 0.0 4.0 6 48
d 0.981096 5 7 tcp 296 ------- 1 0.0 4.0 6 48
r 0.981443 1 2 cbr 450 ------- 0 1.0 6.0 46 56
+ 0.981443 2 3 cbr 450 ------- 0 1.0 6.0 46 56
- 0.981443 2 3 cbr 450 ------- 0 1.0 6.0 46 56
+ 0.985092 3 7 cbr 450 ------- 0 1.0 6.0 39 49
- 0.985092 3 7 cbr 450 ------- 0 1.0 6.0 39 49
d 0.985096 5 7 cbr 450 ------- 0 1.0 6.0 39 49
d 0.985096 4 7 cbr 450 ------- 0 1.0 6.0 39 49
+ 0.985714 1 2 cbr 450 ------- 0 1.0 6.0 48 58
- 0.985714 1 2 cbr 450 ------- 0 1.0 6.0 48 58
r 0.987054 7 6 cbr 450 ------- 0 1.0 6.0 35 41
r 0.987407 2 3 cbr 450 ------- 0 1.0 6.0 45 55
h 0.987407 3 7 cbr 450 ------- 0 1.0 6.0 45 55
+ 0.989092 3 7 cbr 450 ------- 0 1.0 6.0 40 50
- 0.989092 3 7 cbr 450 ------- 0 1.0 6.0 40 50
d 0.989096 5 7 cbr 450 ------- 0 1.0 6.0 40 50
d 0.989096 4 7 cbr 450 ------- 0 1.0 6.0 40 50
r 0.989479 1 2 cbr 450 ------- 0 1.0 6.0 47 57
+ 0.989479 2 3 cbr 450 ------- 0 1.0 6.0 47 57