+ 0.1 1 0 ping 64 ------- 0 1.0 4.0 -1 0
- 0.1 1 0 ping 64 ------- 0 1.0 4.0 -1 0
r 0.110512 1 0 ping 64 ------- 0 1.0 4.0 -1 0
+ 0.110512 0 4 ping 64 ------- 0 1.0 4.0 -1 0
- 0.110512 0 4 ping 64 ------- 0 1.0 4.0 -1 0
r 0.130768 0 4 ping 64 ------- 0 1.0 4.0 -1 0
+ 0.130768 4 0 ping 64 ------- 0 4.0 1.0 -1 1
- 0.130768 4 0 ping 64 ------- 0 4.0 1.0 -1 1
r 0.151024 4 0 ping 64 ------- 0 4.0 1.0 -1 1
+ 0.151024 0 1 ping 64 ------- 0 4.0 1.0 -1 1
- 0.151024 0 1 ping 64 ------- 0 4.0 1.0 -1 1
r 0.161536 0 1 ping 64 ------- 0 4.0 1.0 -1 1
+ 0.3 2 0 ping 64 ------- 0 2.0 5.0 -1 2
- 0.3 2 0 ping 64 ------- 0 2.0 5.0 -1 2
r 0.310512 2 0 ping 64 ------- 0 2.0 5.0 -1 2
+ 0.310512 0 5 ping 64 ------- 0 2.0 5.0 -1 2
- 0.310512 0 5 ping 64 ------- 0 2.0 5.0 -1 2
r 0.330768 0 5 ping 64 ------- 0 2.0 5.0 -1 2
+ 0.330768 5 0 ping 64 ------- 0 5.0 2.0 -1 3
- 0.330768 5 0 ping 64 ------- 0 5.0 2.0 -1 3
r 0.351024 5 0 ping 64 ------- 0 5.0 2.0 -1 3
+ 0.351024 0 2 ping 64 ------- 0 5.0 2.0 -1 3
- 0.351024 0 2 ping 64 ------- 0 5.0 2.0 -1 3
r 0.361536 0 2 ping 64 ------- 0 5.0 2.0 -1 3
+ 0.5 3 0 ping 64 ------- 0 3.0 6.0 -1 4
- 0.5 3 0 ping 64 ------- 0 3.0 6.0 -1 4
r 0.510512 3 0 ping 64 ------- 0 3.0 6.0 -1 4
+ 0.510512 0 6 ping 64 ------- 0 3.0 6.0 -1 4
d 0.510512 0 6 ping 64 ------- 0 3.0 6.0 -1 4
+ 0.7 4 0 ping 64 ------- 0 4.0 1.0 -1 5
- 0.7 4 0 ping 64 ------- 0 4.0 1.0 -1 5
r 0.720256 4 0 ping 64 ------- 0 4.0 1.0 -1 5
+ 0.720256 0 1 ping 64 ------- 0 4.0 1.0 -1 5
- 0.720256 0 1 ping 64 ------- 0 4.0 1.0 -1 5
r 0.730768 0 1 ping 64 ------- 0 4.0 1.0 -1 5
+ 0.730768 1 0 ping 64 ------- 0 1.0 4.0 -1 6
- 0.730768 1 0 ping 64 ------- 0 1.0 4.0 -1 6
r 0.74128 1 0 ping 64 ------- 0 1.0 4.0 -1 6
+ 0.74128 0 4 ping 64 ------- 0 1.0 4.0 -1 6
- 0.74128 0 4 ping 64 ------- 0 1.0 4.0 -1 6
r 0.761536 0 4 ping 64 ------- 0 1.0 4.0 -1 6
+ 0.9 5 0 ping 64 ------- 0 5.0 2.0 -1 7
- 0.9 5 0 ping 64 ------- 0 5.0 2.0 -1 7
r 0.920256 5 0 ping 64 ------- 0 5.0 2.0 -1 7
+ 0.920256 0 2 ping 64 ------- 0 5.0 2.0 -1 7
- 0.920256 0 2 ping 64 ------- 0 5.0 2.0 -1 7
r 0.930768 0 2 ping 64 ------- 0 5.0 2.0 -1 7
+ 0.930768 2 0 ping 64 ------- 0 2.0 5.0 -1 8
- 0.930768 2 0 ping 64 ------- 0 2.0 5.0 -1 8
r 0.94128 2 0 ping 64 ------- 0 2.0 5.0 -1 8
+ 0.94128 0 5 ping 64 ------- 0 2.0 5.0 -1 8
- 0.94128 0 5 ping 64 ------- 0 2.0 5.0 -1 8
r 0.961536 0 5 ping 64 ------- 0 2.0 5.0 -1 8
+ 1.1 6 0 ping 64 ------- 0 6.0 3.0 -1 9
- 1.1 6 0 ping 64 ------- 0 6.0 3.0 -1 9
r 1.110512 6 0 ping 64 ------- 0 6.0 3.0 -1 9
+ 1.110512 0 3 ping 64 ------- 0 6.0 3.0 -1 9
- 1.110512 0 3 ping 64 ------- 0 6.0 3.0 -1 9
r 1.121024 0 3 ping 64 ------- 0 6.0 3.0 -1 9
+ 1.121024 3 0 ping 64 ------- 0 3.0 6.0 -1 10
- 1.121024 3 0 ping 64 ------- 0 3.0 6.0 -1 10
r 1.131536 3 0 ping 64 ------- 0 3.0 6.0 -1 10
+ 1.131536 0 6 ping 64 ------- 0 3.0 6.0 -1 10
d 1.131536 0 6 ping 64 ------- 0 3.0 6.0 -1 10
+ 1.3 1 0 ping 64 ------- 0 1.0 4.0 -1 11
- 1.3 1 0 ping 64 ------- 0 1.0 4.0 -1 11
r 1.310512 1 0 ping 64 ------- 0 1.0 4.0 -1 11
+ 1.310512 0 4 ping 64 ------- 0 1.0 4.0 -1 11
- 1.310512 0 4 ping 64 ------- 0 1.0 4.0 -1 11
r 1.330768 0 4 ping 64 ------- 0 1.0 4.0 -1 11
+ 1.330768 4 0 ping 64 ------- 0 4.0 1.0 -1 12
- 1.330768 4 0 ping 64 ------- 0 4.0 1.0 -1 12
r 1.351024 4 0 ping 64 ------- 0 4.0 1.0 -1 12
+ 1.351024 0 1 ping 64 ------- 0 4.0 1.0 -1 12
- 1.351024 0 1 ping 64 ------- 0 4.0 1.0 -1 12
r 1.361536 0 1 ping 64 ------- 0 4.0 1.0 -1 12
+ 1.5 2 0 ping 64 ------- 0 2.0 5.0 -1 13
- 1.5 2 0 ping 64 ------- 0 2.0 5.0 -1 13
r 1.510512 2 0 ping 64 ------- 0 2.0 5.0 -1 13
+ 1.510512 0 5 ping 64 ------- 0 2.0 5.0 -1 13
- 1.510512 0 5 ping 64 ------- 0 2.0 5.0 -1 13
r 1.530768 0 5 ping 64 ------- 0 2.0 5.0 -1 13
+ 1.530768 5 0 ping 64 ------- 0 5.0 2.0 -1 14
- 1.530768 5 0 ping 64 ------- 0 5.0 2.0 -1 14
r 1.551024 5 0 ping 64 ------- 0 5.0 2.0 -1 14
+ 1.551024 0 2 ping 64 ------- 0 5.0 2.0 -1 14
- 1.551024 0 2 ping 64 ------- 0 5.0 2.0 -1 14
r 1.561536 0 2 ping 64 ------- 0 5.0 2.0 -1 14
+ 1.7 3 0 ping 64 ------- 0 3.0 6.0 -1 15
- 1.7 3 0 ping 64 ------- 0 3.0 6.0 -1 15
r 1.710512 3 0 ping 64 ------- 0 3.0 6.0 -1 15
+ 1.710512 0 6 ping 64 ------- 0 3.0 6.0 -1 15
d 1.710512 0 6 ping 64 ------- 0 3.0 6.0 -1 15
+ 1.9 4 0 ping 64 ------- 0 4.0 1.0 -1 16
- 1.9 4 0 ping 64 ------- 0 4.0 1.0 -1 16
r 1.920256 4 0 ping 64 ------- 0 4.0 1.0 -1 16
+ 1.920256 0 1 ping 64 ------- 0 4.0 1.0 -1 16
- 1.920256 0 1 ping 64 ------- 0 4.0 1.0 -1 16
r 1.930768 0 1 ping 64 ------- 0 4.0 1.0 -1 16
+ 1.930768 1 0 ping 64 ------- 0 1.0 4.0 -1 17
- 1.930768 1 0 ping 64 ------- 0 1.0 4.0 -1 17
r 1.94128 1 0 ping 64 ------- 0 1.0 4.0 -1 17
+ 1.94128 0 4 ping 64 ------- 0 1.0 4.0 -1 17
- 1.94128 0 4 ping 64 ------- 0 1.0 4.0 -1 17
r 1.961536 0 4 ping 64 ------- 0 1.0 4.0 -1 17
+ 2.1 5 0 ping 64 ------- 0 5.0 2.0 -1 18
- 2.1 5 0 ping 64 ------- 0 5.0 2.0 -1 18
r 2.120256 5 0 ping 64 ------- 0 5.0 2.0 -1 18
+ 2.120256 0 2 ping 64 ------- 0 5.0 2.0 -1 18
- 2.120256 0 2 ping 64 ------- 0 5.0 2.0 -1 18
r 2.130768 0 2 ping 64 ------- 0 5.0 2.0 -1 18
+ 2.130768 2 0 ping 64 ------- 0 2.0 5.0 -1 19
- 2.130768 2 0 ping 64 ------- 0 2.0 5.0 -1 19
r 2.14128 2 0 ping 64 ------- 0 2.0 5.0 -1 19
+ 2.14128 0 5 ping 64 ------- 0 2.0 5.0 -1 19
- 2.14128 0 5 ping 64 ------- 0 2.0 5.0 -1 19
r 2.161536 0 5 ping 64 ------- 0 2.0 5.0 -1 19
+ 2.3 6 0 ping 64 ------- 0 6.0 3.0 -1 20
- 2.3 6 0 ping 64 ------- 0 6.0 3.0 -1 20
r 2.310512 6 0 ping 64 ------- 0 6.0 3.0 -1 20
+ 2.310512 0 3 ping 64 ------- 0 6.0 3.0 -1 20
- 2.310512 0 3 ping 64 ------- 0 6.0 3.0 -1 20
r 2.321024 0 3 ping 64 ------- 0 6.0 3.0 -1 20
+ 2.321024 3 0 ping 64 ------- 0 3.0 6.0 -1 21
- 2.321024 3 0 ping 64 ------- 0 3.0 6.0 -1 21
r 2.331536 3 0 ping 64 ------- 0 3.0 6.0 -1 21
+ 2.331536 0 6 ping 64 ------- 0 3.0 6.0 -1 21
d 2.331536 0 6 ping 64 ------- 0 3.0 6.0 -1 21
+ 2.5 1 0 ping 64 ------- 0 1.0 4.0 -1 22
- 2.5 1 0 ping 64 ------- 0 1.0 4.0 -1 22
r 2.510512 1 0 ping 64 ------- 0 1.0 4.0 -1 22
+ 2.510512 0 4 ping 64 ------- 0 1.0 4.0 -1 22
- 2.510512 0 4 ping 64 ------- 0 1.0 4.0 -1 22
r 2.530768 0 4 ping 64 ------- 0 1.0 4.0 -1 22
+ 2.530768 4 0 ping 64 ------- 0 4.0 1.0 -1 23
- 2.530768 4 0 ping 64 ------- 0 4.0 1.0 -1 23
r 2.551024 4 0 ping 64 ------- 0 4.0 1.0 -1 23
+ 2.551024 0 1 ping 64 ------- 0 4.0 1.0 -1 23
- 2.551024 0 1 ping 64 ------- 0 4.0 1.0 -1 23
r 2.561536 0 1 ping 64 ------- 0 4.0 1.0 -1 23
