V -t * -v 1.0a5 -a 0
A -t * -n 1 -p 0 -o 0x7fffffff -c 30 -a 1
A -t * -h 1 -m 1073741823 -s 0
n -t * -a 0 -s 0 -S UP -v circle -c blue -i blue
n -t * -a 1 -s 1 -S UP -v circle -c green -i green
n -t * -a 2 -s 2 -S UP -v circle -c black -i black
n -t * -a 3 -s 3 -S UP -v circle -c red -i red
l -t * -s 0 -d 2 -S UP -r 2100000 -D 0.01 -c black
l -t * -s 1 -d 2 -S UP -r 2000000 -D 0.01 -c black
l -t * -s 2 -d 3 -S UP -r 900000 -D 0.01 -c black
+ -t 0.6 -s 1 -d 2 -p tcp -e 40 -c 0 -i 0 -a 0 -x {1.0 3.1 0 ------- null}
- -t 0.6 -s 1 -d 2 -p tcp -e 40 -c 0 -i 0 -a 0 -x {1.0 3.1 0 ------- null}
h -t 0.6 -s 1 -d 2 -p tcp -e 40 -c 0 -i 0 -a 0 -x {1.0 3.1 -1 ------- null}
r -t 0.61016 -s 1 -d 2 -p tcp -e 40 -c 0 -i 0 -a 0 -x {1.0 3.1 0 ------- null}
+ -t 0.61016 -s 2 -d 3 -p tcp -e 40 -c 0 -i 0 -a 0 -x {1.0 3.1 0 ------- null}
- -t 0.61016 -s 2 -d 3 -p tcp -e 40 -c 0 -i 0 -a 0 -x {1.0 3.1 0 ------- null}
h -t 0.61016 -s 2 -d 3 -p tcp -e 40 -c 0 -i 0 -a 0 -x {1.0 3.1 -1 ------- null}
r -t 0.620515555555555 -s 2 -d 3 -p tcp -e 40 -c 0 -i 0 -a 0 -x {1.0 3.1 0 ------- null}
+ -t 0.620515555555555 -s 3 -d 2 -p ack -e 40 -c 0 -i 1 -a 0 -x {3.1 1.0 0 ------- null}
- -t 0.620515555555555 -s 3 -d 2 -p ack -e 40 -c 0 -i 1 -a 0 -x {3.1 1.0 0 ------- null}
h -t 0.620515555555555 -s 3 -d 2 -p ack -e 40 -c 0 -i 1 -a 0 -x {3.1 1.0 -1 ------- null}
r -t 0.630871111111111 -s 3 -d 2 -p ack -e 40 -c 0 -i 1 -a 0 -x {3.1 1.0 0 ------- null}
+ -t 0.630871111111111 -s 2 -d 1 -p ack -e 40 -c 0 -i 1 -a 0 -x {3.1 1.0 0 ------- null}
- -t 0.630871111111111 -s 2 -d 1 -p ack -e 40 -c 0 -i 1 -a 0 -x {3.1 1.0 0 ------- null}
h -t 0.630871111111111 -s 2 -d 1 -p ack -e 40 -c 0 -i 1 -a 0 -x {3.1 1.0 -1 ------- null}
r -t 0.641031111111111 -s 2 -d 1 -p ack -e 40 -c 0 -i 1 -a 0 -x {3.1 1.0 0 ------- null}
+ -t 0.641031111111111 -s 1 -d 2 -p tcp -e 552 -c 0 -i 2 -a 0 -x {1.0 3.1 1 ------- null}
- -t 0.641031111111111 -s 1 -d 2 -p tcp -e 552 -c 0 -i 2 -a 0 -x {1.0 3.1 1 ------- null}
h -t 0.641031111111111 -s 1 -d 2 -p tcp -e 552 -c 0 -i 2 -a 0 -x {1.0 3.1 -1 ------- null}
+ -t 0.641031111111111 -s 1 -d 2 -p tcp -e 552 -c 0 -i 3 -a 0 -x {1.0 3.1 2 ------- null}
- -t 0.643239111111111 -s 1 -d 2 -p tcp -e 552 -c 0 -i 3 -a 0 -x {1.0 3.1 2 ------- null}
h -t 0.643239111111111 -s 1 -d 2 -p tcp -e 552 -c 0 -i 3 -a 0 -x {1.0 3.1 -1 ------- null}
r -t 0.653239111111111 -s 1 -d 2 -p tcp -e 552 -c 0 -i 2 -a 0 -x {1.0 3.1 1 ------- null}
+ -t 0.653239111111111 -s 2 -d 3 -p tcp -e 552 -c 0 -i 2 -a 0 -x {1.0 3.1 1 ------- null}
- -t 0.653239111111111 -s 2 -d 3 -p tcp -e 552 -c 0 -i 2 -a 0 -x {1.0 3.1 1 ------- null}
h -t 0.653239111111111 -s 2 -d 3 -p tcp -e 552 -c 0 -i 2 -a 0 -x {1.0 3.1 -1 ------- null}
r -t 0.655447111111111 -s 1 -d 2 -p tcp -e 552 -c 0 -i 3 -a 0 -x {1.0 3.1 2 ------- null}
+ -t 0.655447111111111 -s 2 -d 3 -p tcp -e 552 -c 0 -i 3 -a 0 -x {1.0 3.1 2 ------- null}
- -t 0.658145777777778 -s 2 -d 3 -p tcp -e 552 -c 0 -i 3 -a 0 -x {1.0 3.1 2 ------- null}
h -t 0.658145777777778 -s 2 -d 3 -p tcp -e 552 -c 0 -i 3 -a 0 -x {1.0 3.1 -1 ------- null}
r -t 0.668145777777778 -s 2 -d 3 -p tcp -e 552 -c 0 -i 2 -a 0 -x {1.0 3.1 1 ------- null}
+ -t 0.668145777777778 -s 3 -d 2 -p ack -e 40 -c 0 -i 4 -a 0 -x {3.1 1.0 1 ------- null}
- -t 0.668145777777778 -s 3 -d 2 -p ack -e 40 -c 0 -i 4 -a 0 -x {3.1 1.0 1 ------- null}
h -t 0.668145777777778 -s 3 -d 2 -p ack -e 40 -c 0 -i 4 -a 0 -x {3.1 1.0 -1 ------- null}
r -t 0.673052444444444 -s 2 -d 3 -p tcp -e 552 -c 0 -i 3 -a 0 -x {1.0 3.1 2 ------- null}
+ -t 0.673052444444444 -s 3 -d 2 -p ack -e 40 -c 0 -i 5 -a 0 -x {3.1 1.0 2 ------- null}
- -t 0.673052444444444 -s 3 -d 2 -p ack -e 40 -c 0 -i 5 -a 0 -x {3.1 1.0 2 ------- null}
h -t 0.673052444444444 -s 3 -d 2 -p ack -e 40 -c 0 -i 5 -a 0 -x {3.1 1.0 -1 ------- null}
r -t 0.678501333333333 -s 3 -d 2 -p ack -e 40 -c 0 -i 4 -a 0 -x {3.1 1.0 1 ------- null}
+ -t 0.678501333333333 -s 2 -d 1 -p ack -e 40 -c 0 -i 4 -a 0 -x {3.1 1.0 1 ------- null}
- -t 0.678501333333333 -s 2 -d 1 -p ack -e 40 -c 0 -i 4 -a 0 -x {3.1 1.0 1 ------- null}
h -t 0.678501333333333 -s 2 -d 1 -p ack -e 40 -c 0 -i 4 -a 0 -x {3.1 1.0 -1 ------- null}
r -t 0.683408 -s 3 -d 2 -p ack -e 40 -c 0 -i 5 -a 0 -x {3.1 1.0 2 ------- null}
+ -t 0.683408 -s 2 -d 1 -p ack -e 40 -c 0 -i 5 -a 0 -x {3.1 1.0 2 ------- null}
- -t 0.683408 -s 2 -d 1 -p ack -e 40 -c 0 -i 5 -a 0 -x {3.1 1.0 2 ------- null}
h -t 0.683408 -s 2 -d 1 -p ack -e 40 -c 0 -i 5 -a 0 -x {3.1 1.0 -1 ------- null}
r -t 0.688661333333333 -s 2 -d 1 -p ack -e 40 -c 0 -i 4 -a 0 -x {3.1 1.0 1 ------- null}
+ -t 0.688661333333333 -s 1 -d 2 -p tcp -e 552 -c 0 -i 6 -a 0 -x {1.0 3.1 3 ------- null}
- -t 0.688661333333333 -s 1 -d 2 -p tcp -e 552 -c 0 -i 6 -a 0 -x {1.0 3.1 3 ------- null}
h -t 0.688661333333333 -s 1 -d 2 -p tcp -e 552 -c 0 -i 6 -a 0 -x {1.0 3.1 -1 ------- null}
+ -t 0.688661333333333 -s 1 -d 2 -p tcp -e 552 -c 0 -i 7 -a 0 -x {1.0 3.1 4 ------- null}
- -t 0.690869333333333 -s 1 -d 2 -p tcp -e 552 -c 0 -i 7 -a 0 -x {1.0 3.1 4 ------- null}
h -t 0.690869333333333 -s 1 -d 2 -p tcp -e 552 -c 0 -i 7 -a 0 -x {1.0 3.1 -1 ------- null}
r -t 0.693568 -s 2 -d 1 -p ack -e 40 -c 0 -i 5 -a 0 -x {3.1 1.0 2 ------- null}
+ -t 0.693568 -s 1 -d 2 -p tcp -e 552 -c 0 -i 8 -a 0 -x {1.0 3.1 5 ------- null}
- -t 0.693568 -s 1 -d 2 -p tcp -e 552 -c 0 -i 8 -a 0 -x {1.0 3.1 5 ------- null}
h -t 0.693568 -s 1 -d 2 -p tcp -e 552 -c 0 -i 8 -a 0 -x {1.0 3.1 -1 ------- null}
+ -t 0.693568 -s 1 -d 2 -p tcp -e 552 -c 0 -i 9 -a 0 -x {1.0 3.1 6 ------- null}
- -t 0.695776 -s 1 -d 2 -p tcp -e 552 -c 0 -i 9 -a 0 -x {1.0 3.1 6 ------- null}
h -t 0.695776 -s 1 -d 2 -p tcp -e 552 -c 0 -i 9 -a 0 -x {1.0 3.1 -1 ------- null}
r -t 0.700869333333333 -s 1 -d 2 -p tcp -e 552 -c 0 -i 6 -a 0 -x {1.0 3.1 3 ------- null}
+ -t 0.700869333333333 -s 2 -d 3 -p tcp -e 552 -c 0 -i 6 -a 0 -x {1.0 3.1 3 ------- null}
- -t 0.700869333333333 -s 2 -d 3 -p tcp -e 552 -c 0 -i 6 -a 0 -x {1.0 3.1 3 ------- null}
h -t 0.700869333333333 -s 2 -d 3 -p tcp -e 552 -c 0 -i 6 -a 0 -x {1.0 3.1 -1 ------- null}
r -t 0.703077333333333 -s 1 -d 2 -p tcp -e 552 -c 0 -i 7 -a 0 -x {1.0 3.1 4 ------- null}
+ -t 0.703077333333333 -s 2 -d 3 -p tcp -e 552 -c 0 -i 7 -a 0 -x {1.0 3.1 4 ------- null}
r -t 0.705776 -s 1 -d 2 -p tcp -e 552 -c 0 -i 8 -a 0 -x {1.0 3.1 5 ------- null}
+ -t 0.705776 -s 2 -d 3 -p tcp -e 552 -c 0 -i 8 -a 0 -x {1.0 3.1 5 ------- null}
- -t 0.705776 -s 2 -d 3 -p tcp -e 552 -c 0 -i 7 -a 0 -x {1.0 3.1 4 ------- null}
h -t 0.705776 -s 2 -d 3 -p tcp -e 552 -c 0 -i 7 -a 0 -x {1.0 3.1 -1 ------- null}
r -t 0.707984 -s 1 -d 2 -p tcp -e 552 -c 0 -i 9 -a 0 -x {1.0 3.1 6 ------- null}
+ -t 0.707984 -s 2 -d 3 -p tcp -e 552 -c 0 -i 9 -a 0 -x {1.0 3.1 6 ------- null}
- -t 0.710682666666666 -s 2 -d 3 -p tcp -e 552 -c 0 -i 8 -a 0 -x {1.0 3.1 5 ------- null}
h -t 0.710682666666666 -s 2 -d 3 -p tcp -e 552 -c 0 -i 8 -a 0 -x {1.0 3.1 -1 ------- null}
- -t 0.715589333333333 -s 2 -d 3 -p tcp -e 552 -c 0 -i 9 -a 0 -x {1.0 3.1 6 ------- null}
h -t 0.715589333333333 -s 2 -d 3 -p tcp -e 552 -c 0 -i 9 -a 0 -x {1.0 3.1 -1 ------- null}
r -t 0.715776 -s 2 -d 3 -p tcp -e 552 -c 0 -i 6 -a 0 -x {1.0 3.1 3 ------- null}
+ -t 0.715776 -s 3 -d 2 -p ack -e 40 -c 0 -i 10 -a 0 -x {3.1 1.0 3 ------- null}
- -t 0.715776 -s 3 -d 2 -p ack -e 40 -c 0 -i 10 -a 0 -x {3.1 1.0 3 ------- null}
h -t 0.715776 -s 3 -d 2 -p ack -e 40 -c 0 -i 10 -a 0 -x {3.1 1.0 -1 ------- null}
r -t 0.720682666666666 -s 2 -d 3 -p tcp -e 552 -c 0 -i 7 -a 0 -x {1.0 3.1 4 ------- null}
+ -t 0.720682666666666 -s 3 -d 2 -p ack -e 40 -c 0 -i 11 -a 0 -x {3.1 1.0 4 ------- null}
- -t 0.720682666666666 -s 3 -d 2 -p ack -e 40 -c 0 -i 11 -a 0 -x {3.1 1.0 4 ------- null}
h -t 0.720682666666666 -s 3 -d 2 -p ack -e 40 -c 0 -i 11 -a 0 -x {3.1 1.0 -1 ------- null}
r -t 0.725589333333333 -s 2 -d 3 -p tcp -e 552 -c 0 -i 8 -a 0 -x {1.0 3.1 5 ------- null}
+ -t 0.725589333333333 -s 3 -d 2 -p ack -e 40 -c 0 -i 12 -a 0 -x {3.1 1.0 5 ------- null}
- -t 0.725589333333333 -s 3 -d 2 -p ack -e 40 -c 0 -i 12 -a 0 -x {3.1 1.0 5 ------- null}
h -t 0.725589333333333 -s 3 -d 2 -p ack -e 40 -c 0 -i 12 -a 0 -x {3.1 1.0 -1 ------- null}
r -t 0.726131555555555 -s 3 -d 2 -p ack -e 40 -c 0 -i 10 -a 0 -x {3.1 1.0 3 ------- null}
+ -t 0.726131555555555 -s 2 -d 1 -p ack -e 40 -c 0 -i 10 -a 0 -x {3.1 1.0 3 ------- null}
- -t 0.726131555555555 -s 2 -d 1 -p ack -e 40 -c 0 -i 10 -a 0 -x {3.1 1.0 3 ------- null}
h -t 0.726131555555555 -s 2 -d 1 -p ack -e 40 -c 0 -i 10 -a 0 -x {3.1 1.0 -1 ------- null}
r -t 0.730496 -s 2 -d 3 -p tcp -e 552 -c 0 -i 9 -a 0 -x {1.0 3.1 6 ------- null}
+ -t 0.730496 -s 3 -d 2 -p ack -e 40 -c 0 -i 13 -a 0 -x {3.1 1.0 6 ------- null}
- -t 0.730496 -s 3 -d 2 -p ack -e 40 -c 0 -i 13 -a 0 -x {3.1 1.0 6 ------- null}
h -t 0.730496 -s 3 -d 2 -p ack -e 40 -c 0 -i 13 -a 0 -x {3.1 1.0 -1 ------- null}
r -t 0.731038222222222 -s 3 -d 2 -p ack -e 40 -c 0 -i 11 -a 0 -x {3.1 1.0 4 ------- null}
+ -t 0.731038222222222 -s 2 -d 1 -p ack -e 40 -c 0 -i 11 -a 0 -x {3.1 1.0 4 ------- null}
- -t 0.731038222222222 -s 2 -d 1 -p ack -e 40 -c 0 -i 11 -a 0 -x {3.1 1.0 4 ------- null}
h -t 0.731038222222222 -s 2 -d 1 -p ack -e 40 -c 0 -i 11 -a 0 -x {3.1 1.0 -1 ------- null}
r -t 0.735944888888889 -s 3 -d 2 -p ack -e 40 -c 0 -i 12 -a 0 -x {3.1 1.0 5 ------- null}
+ -t 0.735944888888889 -s 2 -d 1 -p ack -e 40 -c 0 -i 12 -a 0 -x {3.1 1.0 5 ------- null}
- -t 0.735944888888889 -s 2 -d 1 -p ack -e 40 -c 0 -i 12 -a 0 -x {3.1 1.0 5 ------- null}
h -t 0.735944888888889 -s 2 -d 1 -p ack -e 40 -c 0 -i 12 -a 0 -x {3.1 1.0 -1 ------- null}
r -t 0.736291555555555 -s 2 -d 1 -p ack -e 40 -c 0 -i 10 -a 0 -x {3.1 1.0 3 ------- null}
+ -t 0.736291555555555 -s 1 -d 2 -p tcp -e 552 -c 0 -i 14 -a 0 -x {1.0 3.1 7 ------- null}
- -t 0.736291555555555 -s 1 -d 2 -p tcp -e 552 -c 0 -i 14 -a 0 -x {1.0 3.1 7 ------- null}
h -t 0.736291555555555 -s 1 -d 2 -p tcp -e 552 -c 0 -i 14 -a 0 -x {1.0 3.1 -1 ------- null}
+ -t 0.736291555555555 -s 1 -d 2 -p tcp -e 552 -c 0 -i 15 -a 0 -x {1.0 3.1 8 ------- null}
- -t 0.738499555555555 -s 1 -d 2 -p tcp -e 552 -c 0 -i 15 -a 0 -x {1.0 3.1 8 ------- null}
h -t 0.738499555555555 -s 1 -d 2 -p tcp -e 552 -c 0 -i 15 -a 0 -x {1.0 3.1 -1 ------- null}
r -t 0.740851555555555 -s 3 -d 2 -p ack -e 40 -c 0 -i 13 -a 0 -x {3.1 1.0 6 ------- null}
+ -t 0.740851555555555 -s 2 -d 1 -p ack -e 40 -c 0 -i 13 -a 0 -x {3.1 1.0 6 ------- null}
- -t 0.740851555555555 -s 2 -d 1 -p ack -e 40 -c 0 -i 13 -a 0 -x {3.1 1.0 6 ------- null}
h -t 0.740851555555555 -s 2 -d 1 -p ack -e 40 -c 0 -i 13 -a 0 -x {3.1 1.0 -1 ------- null}
r -t 0.741198222222222 -s 2 -d 1 -p ack -e 40 -c 0 -i 11 -a 0 -x {3.1 1.0 4 ------- null}
+ -t 0.741198222222222 -s 1 -d 2 -p tcp -e 552 -c 0 -i 16 -a 0 -x {1.0 3.1 9 ------- null}
- -t 0.741198222222222 -s 1 -d 2 -p tcp -e 552 -c 0 -i 16 -a 0 -x {1.0 3.1 9 ------- null}
h -t 0.741198222222222 -s 1 -d 2 -p tcp -e 552 -c 0 -i 16 -a 0 -x {1.0 3.1 -1 ------- null}
+ -t 0.741198222222222 -s 1 -d 2 -p tcp -e 552 -c 0 -i 17 -a 0 -x {1.0 3.1 10 ------- null}
- -t 0.743406222222222 -s 1 -d 2 -p tcp -e 552 -c 0 -i 17 -a 0 -x {1.0 3.1 10 ------- null}
h -t 0.743406222222222 -s 1 -d 2 -p tcp -e 552 -c 0 -i 17 -a 0 -x {1.0 3.1 -1 ------- null}
r -t 0.746104888888888 -s 2 -d 1 -p ack -e 40 -c 0 -i 12 -a 0 -x {3.1 1.0 5 ------- null}
+ -t 0.746104888888888 -s 1 -d 2 -p tcp -e 552 -c 0 -i 18 -a 0 -x {1.0 3.1 11 ------- null}
- -t 0.746104888888888 -s 1 -d 2 -p tcp -e 552 -c 0 -i 18 -a 0 -x {1.0 3.1 11 ------- null}
h -t 0.746104888888888 -s 1 -d 2 -p tcp -e 552 -c 0 -i 18 -a 0 -x {1.0 3.1 -1 ------- null}
+ -t 0.746104888888888 -s 1 -d 2 -p tcp -e 552 -c 0 -i 19 -a 0 -x {1.0 3.1 12 ------- null}
- -t 0.748312888888888 -s 1 -d 2 -p tcp -e 552 -c 0 -i 19 -a 0 -x {1.0 3.1 12 ------- null}
h -t 0.748312888888888 -s 1 -d 2 -p tcp -e 552 -c 0 -i 19 -a 0 -x {1.0 3.1 -1 ------- null}
r -t 0.748499555555555 -s 1 -d 2 -p tcp -e 552 -c 0 -i 14 -a 0 -x {1.0 3.1 7 ------- null}
+ -t 0.748499555555555 -s 2 -d 3 -p tcp -e 552 -c 0 -i 14 -a 0 -x {1.0 3.1 7 ------- null}
- -t 0.748499555555555 -s 2 -d 3 -p tcp -e 552 -c 0 -i 14 -a 0 -x {1.0 3.1 7 ------- null}
h -t 0.748499555555555 -s 2 -d 3 -p tcp -e 552 -c 0 -i 14 -a 0 -x {1.0 3.1 -1 ------- null}
r -t 0.750707555555555 -s 1 -d 2 -p tcp -e 552 -c 0 -i 15 -a 0 -x {1.0 3.1 8 ------- null}
+ -t 0.750707555555555 -s 2 -d 3 -p tcp -e 552 -c 0 -i 15 -a 0 -x {1.0 3.1 8 ------- null}
r -t 0.751011555555555 -s 2 -d 1 -p ack -e 40 -c 0 -i 13 -a 0 -x {3.1 1.0 6 ------- null}
+ -t 0.751011555555555 -s 1 -d 2 -p tcp -e 552 -c 0 -i 20 -a 0 -x {1.0 3.1 13 ------- null}
- -t 0.751011555555555 -s 1 -d 2 -p tcp -e 552 -c 0 -i 20 -a 0 -x {1.0 3.1 13 ------- null}
h -t 0.751011555555555 -s 1 -d 2 -p tcp -e 552 -c 0 -i 20 -a 0 -x {1.0 3.1 -1 ------- null}
+ -t 0.751011555555555 -s 1 -d 2 -p tcp -e 552 -c 0 -i 21 -a 0 -x {1.0 3.1 14 ------- null}
- -t 0.753219555555555 -s 1 -d 2 -p tcp -e 552 -c 0 -i 21 -a 0 -x {1.0 3.1 14 ------- null}
h -t 0.753219555555555 -s 1 -d 2 -p tcp -e 552 -c 0 -i 21 -a 0 -x {1.0 3.1 -1 ------- null}
r -t 0.753406222222222 -s 1 -d 2 -p tcp -e 552 -c 0 -i 16 -a 0 -x {1.0 3.1 9 ------- null}
+ -t 0.753406222222222 -s 2 -d 3 -p tcp -e 552 -c 0 -i 16 -a 0 -x {1.0 3.1 9 ------- null}
- -t 0.753406222222222 -s 2 -d 3 -p tcp -e 552 -c 0 -i 15 -a 0 -x {1.0 3.1 8 ------- null}
h -t 0.753406222222222 -s 2 -d 3 -p tcp -e 552 -c 0 -i 15 -a 0 -x {1.0 3.1 -1 ------- null}
r -t 0.755614222222222 -s 1 -d 2 -p tcp -e 552 -c 0 -i 17 -a 0 -x {1.0 3.1 10 ------- null}
+ -t 0.755614222222222 -s 2 -d 3 -p tcp -e 552 -c 0 -i 17 -a 0 -x {1.0 3.1 10 ------- null}
r -t 0.758312888888888 -s 1 -d 2 -p tcp -e 552 -c 0 -i 18 -a 0 -x {1.0 3.1 11 ------- null}
+ -t 0.758312888888888 -s 2 -d 3 -p tcp -e 552 -c 0 -i 18 -a 0 -x {1.0 3.1 11 ------- null}
- -t 0.758312888888888 -s 2 -d 3 -p tcp -e 552 -c 0 -i 16 -a 0 -x {1.0 3.1 9 ------- null}
h -t 0.758312888888888 -s 2 -d 3 -p tcp -e 552 -c 0 -i 16 -a 0 -x {1.0 3.1 -1 ------- null}
r -t 0.760520888888888 -s 1 -d 2 -p tcp -e 552 -c 0 -i 19 -a 0 -x {1.0 3.1 12 ------- null}
+ -t 0.760520888888888 -s 2 -d 3 -p tcp -e 552 -c 0 -i 19 -a 0 -x {1.0 3.1 12 ------- null}
r -t 0.763219555555555 -s 1 -d 2 -p tcp -e 552 -c 0 -i 20 -a 0 -x {1.0 3.1 13 ------- null}
+ -t 0.763219555555555 -s 2 -d 3 -p tcp -e 552 -c 0 -i 20 -a 0 -x {1.0 3.1 13 ------- null}
- -t 0.763219555555555 -s 2 -d 3 -p tcp -e 552 -c 0 -i 17 -a 0 -x {1.0 3.1 10 ------- null}
h -t 0.763219555555555 -s 2 -d 3 -p tcp -e 552 -c 0 -i 17 -a 0 -x {1.0 3.1 -1 ------- null}
r -t 0.763406222222222 -s 2 -d 3 -p tcp -e 552 -c 0 -i 14 -a 0 -x {1.0 3.1 7 ------- null}
+ -t 0.763406222222222 -s 3 -d 2 -p ack -e 40 -c 0 -i 22 -a 0 -x {3.1 1.0 7 ------- null}
- -t 0.763406222222222 -s 3 -d 2 -p ack -e 40 -c 0 -i 22 -a 0 -x {3.1 1.0 7 ------- null}
h -t 0.763406222222222 -s 3 -d 2 -p ack -e 40 -c 0 -i 22 -a 0 -x {3.1 1.0 -1 ------- null}
r -t 0.765427555555555 -s 1 -d 2 -p tcp -e 552 -c 0 -i 21 -a 0 -x {1.0 3.1 14 ------- null}
+ -t 0.765427555555555 -s 2 -d 3 -p tcp -e 552 -c 0 -i 21 -a 0 -x {1.0 3.1 14 ------- null}
- -t 0.768126222222222 -s 2 -d 3 -p tcp -e 552 -c 0 -i 18 -a 0 -x {1.0 3.1 11 ------- null}
h -t 0.768126222222222 -s 2 -d 3 -p tcp -e 552 -c 0 -i 18 -a 0 -x {1.0 3.1 -1 ------- null}
r -t 0.768312888888888 -s 2 -d 3 -p tcp -e 552 -c 0 -i 15 -a 0 -x {1.0 3.1 8 ------- null}
+ -t 0.768312888888888 -s 3 -d 2 -p ack -e 40 -c 0 -i 23 -a 0 -x {3.1 1.0 8 ------- null}
- -t 0.768312888888888 -s 3 -d 2 -p ack -e 40 -c 0 -i 23 -a 0 -x {3.1 1.0 8 ------- null}
h -t 0.768312888888888 -s 3 -d 2 -p ack -e 40 -c 0 -i 23 -a 0 -x {3.1 1.0 -1 ------- null}
- -t 0.773032888888888 -s 2 -d 3 -p tcp -e 552 -c 0 -i 19 -a 0 -x {1.0 3.1 12 ------- null}
h -t 0.773032888888888 -s 2 -d 3 -p tcp -e 552 -c 0 -i 19 -a 0 -x {1.0 3.1 -1 ------- null}
r -t 0.773219555555555 -s 2 -d 3 -p tcp -e 552 -c 0 -i 16 -a 0 -x {1.0 3.1 9 ------- null}
+ -t 0.773219555555555 -s 3 -d 2 -p ack -e 40 -c 0 -i 24 -a 0 -x {3.1 1.0 9 ------- null}
- -t 0.773219555555555 -s 3 -d 2 -p ack -e 40 -c 0 -i 24 -a 0 -x {3.1 1.0 9 ------- null}
h -t 0.773219555555555 -s 3 -d 2 -p ack -e 40 -c 0 -i 24 -a 0 -x {3.1 1.0 -1 ------- null}
r -t 0.773761777777777 -s 3 -d 2 -p ack -e 40 -c 0 -i 22 -a 0 -x {3.1 1.0 7 ------- null}
+ -t 0.773761777777777 -s 2 -d 1 -p ack -e 40 -c 0 -i 22 -a 0 -x {3.1 1.0 7 ------- null}
- -t 0.773761777777777 -s 2 -d 1 -p ack -e 40 -c 0 -i 22 -a 0 -x {3.1 1.0 7 ------- null}
h -t 0.773761777777777 -s 2 -d 1 -p ack -e 40 -c 0 -i 22 -a 0 -x {3.1 1.0 -1 ------- null}
- -t 0.777939555555555 -s 2 -d 3 -p tcp -e 552 -c 0 -i 20 -a 0 -x {1.0 3.1 13 ------- null}
h -t 0.777939555555555 -s 2 -d 3 -p tcp -e 552 -c 0 -i 20 -a 0 -x {1.0 3.1 -1 ------- null}
r -t 0.778126222222222 -s 2 -d 3 -p tcp -e 552 -c 0 -i 17 -a 0 -x {1.0 3.1 10 ------- null}
+ -t 0.778126222222222 -s 3 -d 2 -p ack -e 40 -c 0 -i 25 -a 0 -x {3.1 1.0 10 ------- null}
- -t 0.778126222222222 -s 3 -d 2 -p ack -e 40 -c 0 -i 25 -a 0 -x {3.1 1.0 10 ------- null}
h -t 0.778126222222222 -s 3 -d 2 -p ack -e 40 -c 0 -i 25 -a 0 -x {3.1 1.0 -1 ------- null}
r -t 0.778668444444444 -s 3 -d 2 -p ack -e 40 -c 0 -i 23 -a 0 -x {3.1 1.0 8 ------- null}
+ -t 0.778668444444444 -s 2 -d 1 -p ack -e 40 -c 0 -i 23 -a 0 -x {3.1 1.0 8 ------- null}
- -t 0.778668444444444 -s 2 -d 1 -p ack -e 40 -c 0 -i 23 -a 0 -x {3.1 1.0 8 ------- null}
h -t 0.778668444444444 -s 2 -d 1 -p ack -e 40 -c 0 -i 23 -a 0 -x {3.1 1.0 -1 ------- null}
- -t 0.782846222222222 -s 2 -d 3 -p tcp -e 552 -c 0 -i 21 -a 0 -x {1.0 3.1 14 ------- null}
h -t 0.782846222222222 -s 2 -d 3 -p tcp -e 552 -c 0 -i 21 -a 0 -x {1.0 3.1 -1 ------- null}
r -t 0.783032888888888 -s 2 -d 3 -p tcp -e 552 -c 0 -i 18 -a 0 -x {1.0 3.1 11 ------- null}
+ -t 0.783032888888888 -s 3 -d 2 -p ack -e 40 -c 0 -i 26 -a 0 -x {3.1 1.0 11 ------- null}
- -t 0.783032888888888 -s 3 -d 2 -p ack -e 40 -c 0 -i 26 -a 0 -x {3.1 1.0 11 ------- null}
h -t 0.783032888888888 -s 3 -d 2 -p ack -e 40 -c 0 -i 26 -a 0 -x {3.1 1.0 -1 ------- null}
r -t 0.783575111111111 -s 3 -d 2 -p ack -e 40 -c 0 -i 24 -a 0 -x {3.1 1.0 9 ------- null}
+ -t 0.783575111111111 -s 2 -d 1 -p ack -e 40 -c 0 -i 24 -a 0 -x {3.1 1.0 9 ------- null}
- -t 0.783575111111111 -s 2 -d 1 -p ack -e 40 -c 0 -i 24 -a 0 -x {3.1 1.0 9 ------- null}
h -t 0.783575111111111 -s 2 -d 1 -p ack -e 40 -c 0 -i 24 -a 0 -x {3.1 1.0 -1 ------- null}
r -t 0.783921777777777 -s 2 -d 1 -p ack -e 40 -c 0 -i 22 -a 0 -x {3.1 1.0 7 ------- null}
+ -t 0.783921777777777 -s 1 -d 2 -p tcp -e 552 -c 0 -i 27 -a 0 -x {1.0 3.1 15 ------- null}
- -t 0.783921777777777 -s 1 -d 2 -p tcp -e 552 -c 0 -i 27 -a 0 -x {1.0 3.1 15 ------- null}
h -t 0.783921777777777 -s 1 -d 2 -p tcp -e 552 -c 0 -i 27 -a 0 -x {1.0 3.1 -1 ------- null}
+ -t 0.783921777777777 -s 1 -d 2 -p tcp -e 552 -c 0 -i 28 -a 0 -x {1.0 3.1 16 ------- null}
- -t 0.786129777777777 -s 1 -d 2 -p tcp -e 552 -c 0 -i 28 -a 0 -x {1.0 3.1 16 ------- null}
h -t 0.786129777777777 -s 1 -d 2 -p tcp -e 552 -c 0 -i 28 -a 0 -x {1.0 3.1 -1 ------- null}
r -t 0.787939555555555 -s 2 -d 3 -p tcp -e 552 -c 0 -i 19 -a 0 -x {1.0 3.1 12 ------- null}
+ -t 0.787939555555555 -s 3 -d 2 -p ack -e 40 -c 0 -i 29 -a 0 -x {3.1 1.0 12 ------- null}
- -t 0.787939555555555 -s 3 -d 2 -p ack -e 40 -c 0 -i 29 -a 0 -x {3.1 1.0 12 ------- null}
h -t 0.787939555555555 -s 3 -d 2 -p ack -e 40 -c 0 -i 29 -a 0 -x {3.1 1.0 -1 ------- null}
r -t 0.788481777777777 -s 3 -d 2 -p ack -e 40 -c 0 -i 25 -a 0 -x {3.1 1.0 10 ------- null}
+ -t 0.788481777777777 -s 2 -d 1 -p ack -e 40 -c 0 -i 25 -a 0 -x {3.1 1.0 10 ------- null}
- -t 0.788481777777777 -s 2 -d 1 -p ack -e 40 -c 0 -i 25 -a 0 -x {3.1 1.0 10 ------- null}
h -t 0.788481777777777 -s 2 -d 1 -p ack -e 40 -c 0 -i 25 -a 0 -x {3.1 1.0 -1 ------- null}
r -t 0.788828444444444 -s 2 -d 1 -p ack -e 40 -c 0 -i 23 -a 0 -x {3.1 1.0 8 ------- null}
+ -t 0.788828444444444 -s 1 -d 2 -p tcp -e 552 -c 0 -i 30 -a 0 -x {1.0 3.1 17 ------- null}
- -t 0.788828444444444 -s 1 -d 2 -p tcp -e 552 -c 0 -i 30 -a 0 -x {1.0 3.1 17 ------- null}
h -t 0.788828444444444 -s 1 -d 2 -p tcp -e 552 -c 0 -i 30 -a 0 -x {1.0 3.1 -1 ------- null}
+ -t 0.788828444444444 -s 1 -d 2 -p tcp -e 552 -c 0 -i 31 -a 0 -x {1.0 3.1 18 ------- null}
- -t 0.791036444444444 -s 1 -d 2 -p tcp -e 552 -c 0 -i 31 -a 0 -x {1.0 3.1 18 ------- null}
h -t 0.791036444444444 -s 1 -d 2 -p tcp -e 552 -c 0 -i 31 -a 0 -x {1.0 3.1 -1 ------- null}
r -t 0.792846222222222 -s 2 -d 3 -p tcp -e 552 -c 0 -i 20 -a 0 -x {1.0 3.1 13 ------- null}
+ -t 0.792846222222222 -s 3 -d 2 -p ack -e 40 -c 0 -i 32 -a 0 -x {3.1 1.0 13 ------- null}
- -t 0.792846222222222 -s 3 -d 2 -p ack -e 40 -c 0 -i 32 -a 0 -x {3.1 1.0 13 ------- null}
h -t 0.792846222222222 -s 3 -d 2 -p ack -e 40 -c 0 -i 32 -a 0 -x {3.1 1.0 -1 ------- null}
r -t 0.793388444444444 -s 3 -d 2 -p ack -e 40 -c 0 -i 26 -a 0 -x {3.1 1.0 11 ------- null}
+ -t 0.793388444444444 -s 2 -d 1 -p ack -e 40 -c 0 -i 26 -a 0 -x {3.1 1.0 11 ------- null}
- -t 0.793388444444444 -s 2 -d 1 -p ack -e 40 -c 0 -i 26 -a 0 -x {3.1 1.0 11 ------- null}
h -t 0.793388444444444 -s 2 -d 1 -p ack -e 40 -c 0 -i 26 -a 0 -x {3.1 1.0 -1 ------- null}
r -t 0.793735111111111 -s 2 -d 1 -p ack -e 40 -c 0 -i 24 -a 0 -x {3.1 1.0 9 ------- null}
+ -t 0.793735111111111 -s 1 -d 2 -p tcp -e 552 -c 0 -i 33 -a 0 -x {1.0 3.1 19 ------- null}
- -t 0.793735111111111 -s 1 -d 2 -p tcp -e 552 -c 0 -i 33 -a 0 -x {1.0 3.1 19 ------- null}
h -t 0.793735111111111 -s 1 -d 2 -p tcp -e 552 -c 0 -i 33 -a 0 -x {1.0 3.1 -1 ------- null}
+ -t 0.793735111111111 -s 1 -d 2 -p tcp -e 552 -c 0 -i 34 -a 0 -x {1.0 3.1 20 ------- null}
- -t 0.795943111111111 -s 1 -d 2 -p tcp -e 552 -c 0 -i 34 -a 0 -x {1.0 3.1 20 ------- null}
h -t 0.795943111111111 -s 1 -d 2 -p tcp -e 552 -c 0 -i 34 -a 0 -x {1.0 3.1 -1 ------- null}
r -t 0.796129777777777 -s 1 -d 2 -p tcp -e 552 -c 0 -i 27 -a 0 -x {1.0 3.1 15 ------- null}
+ -t 0.796129777777777 -s 2 -d 3 -p tcp -e 552 -c 0 -i 27 -a 0 -x {1.0 3.1 15 ------- null}
- -t 0.796129777777777 -s 2 -d 3 -p tcp -e 552 -c 0 -i 27 -a 0 -x {1.0 3.1 15 ------- null}
h -t 0.796129777777777 -s 2 -d 3 -p tcp -e 552 -c 0 -i 27 -a 0 -x {1.0 3.1 -1 ------- null}
r -t 0.797752888888888 -s 2 -d 3 -p tcp -e 552 -c 0 -i 21 -a 0 -x {1.0 3.1 14 ------- null}
+ -t 0.797752888888888 -s 3 -d 2 -p ack -e 40 -c 0 -i 35 -a 0 -x {3.1 1.0 14 ------- null}
- -t 0.797752888888888 -s 3 -d 2 -p ack -e 40 -c 0 -i 35 -a 0 -x {3.1 1.0 14 ------- null}
h -t 0.797752888888888 -s 3 -d 2 -p ack -e 40 -c 0 -i 35 -a 0 -x {3.1 1.0 -1 ------- null}
r -t 0.798295111111111 -s 3 -d 2 -p ack -e 40 -c 0 -i 29 -a 0 -x {3.1 1.0 12 ------- null}
+ -t 0.798295111111111 -s 2 -d 1 -p ack -e 40 -c 0 -i 29 -a 0 -x {3.1 1.0 12 ------- null}
- -t 0.798295111111111 -s 2 -d 1 -p ack -e 40 -c 0 -i 29 -a 0 -x {3.1 1.0 12 ------- null}
h -t 0.798295111111111 -s 2 -d 1 -p ack -e 40 -c 0 -i 29 -a 0 -x {3.1 1.0 -1 ------- null}
r -t 0.798337777777777 -s 1 -d 2 -p tcp -e 552 -c 0 -i 28 -a 0 -x {1.0 3.1 16 ------- null}
+ -t 0.798337777777777 -s 2 -d 3 -p tcp -e 552 -c 0 -i 28 -a 0 -x {1.0 3.1 16 ------- null}
r -t 0.798641777777777 -s 2 -d 1 -p ack -e 40 -c 0 -i 25 -a 0 -x {3.1 1.0 10 ------- null}
+ -t 0.798641777777777 -s 1 -d 2 -p tcp -e 552 -c 0 -i 36 -a 0 -x {1.0 3.1 21 ------- null}
- -t 0.798641777777777 -s 1 -d 2 -p tcp -e 552 -c 0 -i 36 -a 0 -x {1.0 3.1 21 ------- null}
h -t 0.798641777777777 -s 1 -d 2 -p tcp -e 552 -c 0 -i 36 -a 0 -x {1.0 3.1 -1 ------- null}
+ -t 0.798641777777777 -s 1 -d 2 -p tcp -e 552 -c 0 -i 37 -a 0 -x {1.0 3.1 22 ------- null}
- -t 0.800849777777777 -s 1 -d 2 -p tcp -e 552 -c 0 -i 37 -a 0 -x {1.0 3.1 22 ------- null}
h -t 0.800849777777777 -s 1 -d 2 -p tcp -e 552 -c 0 -i 37 -a 0 -x {1.0 3.1 -1 ------- null}
r -t 0.801036444444444 -s 1 -d 2 -p tcp -e 552 -c 0 -i 30 -a 0 -x {1.0 3.1 17 ------- null}
+ -t 0.801036444444444 -s 2 -d 3 -p tcp -e 552 -c 0 -i 30 -a 0 -x {1.0 3.1 17 ------- null}
- -t 0.801036444444444 -s 2 -d 3 -p tcp -e 552 -c 0 -i 28 -a 0 -x {1.0 3.1 16 ------- null}
h -t 0.801036444444444 -s 2 -d 3 -p tcp -e 552 -c 0 -i 28 -a 0 -x {1.0 3.1 -1 ------- null}
r -t 0.803201777777777 -s 3 -d 2 -p ack -e 40 -c 0 -i 32 -a 0 -x {3.1 1.0 13 ------- null}
+ -t 0.803201777777777 -s 2 -d 1 -p ack -e 40 -c 0 -i 32 -a 0 -x {3.1 1.0 13 ------- null}
- -t 0.803201777777777 -s 2 -d 1 -p ack -e 40 -c 0 -i 32 -a 0 -x {3.1 1.0 13 ------- null}
h -t 0.803201777777777 -s 2 -d 1 -p ack -e 40 -c 0 -i 32 -a 0 -x {3.1 1.0 -1 ------- null}
r -t 0.803244444444444 -s 1 -d 2 -p tcp -e 552 -c 0 -i 31 -a 0 -x {1.0 3.1 18 ------- null}
+ -t 0.803244444444444 -s 2 -d 3 -p tcp -e 552 -c 0 -i 31 -a 0 -x {1.0 3.1 18 ------- null}
r -t 0.803548444444444 -s 2 -d 1 -p ack -e 40 -c 0 -i 26 -a 0 -x {3.1 1.0 11 ------- null}
+ -t 0.803548444444444 -s 1 -d 2 -p tcp -e 552 -c 0 -i 38 -a 0 -x {1.0 3.1 23 ------- null}
- -t 0.803548444444444 -s 1 -d 2 -p tcp -e 552 -c 0 -i 38 -a 0 -x {1.0 3.1 23 ------- null}
h -t 0.803548444444444 -s 1 -d 2 -p tcp -e 552 -c 0 -i 38 -a 0 -x {1.0 3.1 -1 ------- null}
+ -t 0.803548444444444 -s 1 -d 2 -p tcp -e 552 -c 0 -i 39 -a 0 -x {1.0 3.1 24 ------- null}
- -t 0.805756444444444 -s 1 -d 2 -p tcp -e 552 -c 0 -i 39 -a 0 -x {1.0 3.1 24 ------- null}
h -t 0.805756444444444 -s 1 -d 2 -p tcp -e 552 -c 0 -i 39 -a 0 -x {1.0 3.1 -1 ------- null}
r -t 0.805943111111111 -s 1 -d 2 -p tcp -e 552 -c 0 -i 33 -a 0 -x {1.0 3.1 19 ------- null}
+ -t 0.805943111111111 -s 2 -d 3 -p tcp -e 552 -c 0 -i 33 -a 0 -x {1.0 3.1 19 ------- null}
- -t 0.805943111111111 -s 2 -d 3 -p tcp -e 552 -c 0 -i 30 -a 0 -x {1.0 3.1 17 ------- null}
h -t 0.805943111111111 -s 2 -d 3 -p tcp -e 552 -c 0 -i 30 -a 0 -x {1.0 3.1 -1 ------- null}
r -t 0.808108444444444 -s 3 -d 2 -p ack -e 40 -c 0 -i 35 -a 0 -x {3.1 1.0 14 ------- null}
+ -t 0.808108444444444 -s 2 -d 1 -p ack -e 40 -c 0 -i 35 -a 0 -x {3.1 1.0 14 ------- null}
- -t 0.808108444444444 -s 2 -d 1 -p ack -e 40 -c 0 -i 35 -a 0 -x {3.1 1.0 14 ------- null}
h -t 0.808108444444444 -s 2 -d 1 -p ack -e 40 -c 0 -i 35 -a 0 -x {3.1 1.0 -1 ------- null}
r -t 0.808151111111111 -s 1 -d 2 -p tcp -e 552 -c 0 -i 34 -a 0 -x {1.0 3.1 20 ------- null}
+ -t 0.808151111111111 -s 2 -d 3 -p tcp -e 552 -c 0 -i 34 -a 0 -x {1.0 3.1 20 ------- null}
r -t 0.80845511111111 -s 2 -d 1 -p ack -e 40 -c 0 -i 29 -a 0 -x {3.1 1.0 12 ------- null}
+ -t 0.80845511111111 -s 1 -d 2 -p tcp -e 552 -c 0 -i 40 -a 0 -x {1.0 3.1 25 ------- null}
- -t 0.80845511111111 -s 1 -d 2 -p tcp -e 552 -c 0 -i 40 -a 0 -x {1.0 3.1 25 ------- null}
h -t 0.80845511111111 -s 1 -d 2 -p tcp -e 552 -c 0 -i 40 -a 0 -x {1.0 3.1 -1 ------- null}
+ -t 0.80845511111111 -s 1 -d 2 -p tcp -e 552 -c 0 -i 41 -a 0 -x {1.0 3.1 26 ------- null}
- -t 0.81066311111111 -s 1 -d 2 -p tcp -e 552 -c 0 -i 41 -a 0 -x {1.0 3.1 26 ------- null}
h -t 0.81066311111111 -s 1 -d 2 -p tcp -e 552 -c 0 -i 41 -a 0 -x {1.0 3.1 -1 ------- null}
r -t 0.810849777777777 -s 1 -d 2 -p tcp -e 552 -c 0 -i 36 -a 0 -x {1.0 3.1 21 ------- null}
+ -t 0.810849777777777 -s 2 -d 3 -p tcp -e 552 -c 0 -i 36 -a 0 -x {1.0 3.1 21 ------- null}
- -t 0.810849777777777 -s 2 -d 3 -p tcp -e 552 -c 0 -i 31 -a 0 -x {1.0 3.1 18 ------- null}
h -t 0.810849777777777 -s 2 -d 3 -p tcp -e 552 -c 0 -i 31 -a 0 -x {1.0 3.1 -1 ------- null}
r -t 0.811036444444444 -s 2 -d 3 -p tcp -e 552 -c 0 -i 27 -a 0 -x {1.0 3.1 15 ------- null}
+ -t 0.811036444444444 -s 3 -d 2 -p ack -e 40 -c 0 -i 42 -a 0 -x {3.1 1.0 15 ------- null}
- -t 0.811036444444444 -s 3 -d 2 -p ack -e 40 -c 0 -i 42 -a 0 -x {3.1 1.0 15 ------- null}
h -t 0.811036444444444 -s 3 -d 2 -p ack -e 40 -c 0 -i 42 -a 0 -x {3.1 1.0 -1 ------- null}
r -t 0.813057777777777 -s 1 -d 2 -p tcp -e 552 -c 0 -i 37 -a 0 -x {1.0 3.1 22 ------- null}
+ -t 0.813057777777777 -s 2 -d 3 -p tcp -e 552 -c 0 -i 37 -a 0 -x {1.0 3.1 22 ------- null}
r -t 0.813361777777777 -s 2 -d 1 -p ack -e 40 -c 0 -i 32 -a 0 -x {3.1 1.0 13 ------- null}
+ -t 0.813361777777777 -s 1 -d 2 -p tcp -e 552 -c 0 -i 43 -a 0 -x {1.0 3.1 27 ------- null}
- -t 0.813361777777777 -s 1 -d 2 -p tcp -e 552 -c 0 -i 43 -a 0 -x {1.0 3.1 27 ------- null}
h -t 0.813361777777777 -s 1 -d 2 -p tcp -e 552 -c 0 -i 43 -a 0 -x {1.0 3.1 -1 ------- null}
+ -t 0.813361777777777 -s 1 -d 2 -p tcp -e 552 -c 0 -i 44 -a 0 -x {1.0 3.1 28 ------- null}
- -t 0.815569777777777 -s 1 -d 2 -p tcp -e 552 -c 0 -i 44 -a 0 -x {1.0 3.1 28 ------- null}
h -t 0.815569777777777 -s 1 -d 2 -p tcp -e 552 -c 0 -i 44 -a 0 -x {1.0 3.1 -1 ------- null}
r -t 0.815756444444444 -s 1 -d 2 -p tcp -e 552 -c 0 -i 38 -a 0 -x {1.0 3.1 23 ------- null}
+ -t 0.815756444444444 -s 2 -d 3 -p tcp -e 552 -c 0 -i 38 -a 0 -x {1.0 3.1 23 ------- null}
- -t 0.815756444444444 -s 2 -d 3 -p tcp -e 552 -c 0 -i 33 -a 0 -x {1.0 3.1 19 ------- null}
h -t 0.815756444444444 -s 2 -d 3 -p tcp -e 552 -c 0 -i 33 -a 0 -x {1.0 3.1 -1 ------- null}
r -t 0.815943111111111 -s 2 -d 3 -p tcp -e 552 -c 0 -i 28 -a 0 -x {1.0 3.1 16 ------- null}
+ -t 0.815943111111111 -s 3 -d 2 -p ack -e 40 -c 0 -i 45 -a 0 -x {3.1 1.0 16 ------- null}
- -t 0.815943111111111 -s 3 -d 2 -p ack -e 40 -c 0 -i 45 -a 0 -x {3.1 1.0 16 ------- null}
h -t 0.815943111111111 -s 3 -d 2 -p ack -e 40 -c 0 -i 45 -a 0 -x {3.1 1.0 -1 ------- null}
r -t 0.817964444444444 -s 1 -d 2 -p tcp -e 552 -c 0 -i 39 -a 0 -x {1.0 3.1 24 ------- null}
+ -t 0.817964444444444 -s 2 -d 3 -p tcp -e 552 -c 0 -i 39 -a 0 -x {1.0 3.1 24 ------- null}
r -t 0.818268444444444 -s 2 -d 1 -p ack -e 40 -c 0 -i 35 -a 0 -x {3.1 1.0 14 ------- null}
+ -t 0.818268444444444 -s 1 -d 2 -p tcp -e 552 -c 0 -i 46 -a 0 -x {1.0 3.1 29 ------- null}
- -t 0.818268444444444 -s 1 -d 2 -p tcp -e 552 -c 0 -i 46 -a 0 -x {1.0 3.1 29 ------- null}
h -t 0.818268444444444 -s 1 -d 2 -p tcp -e 552 -c 0 -i 46 -a 0 -x {1.0 3.1 -1 ------- null}
+ -t 0.818268444444444 -s 1 -d 2 -p tcp -e 552 -c 0 -i 47 -a 0 -x {1.0 3.1 30 ------- null}
- -t 0.820476444444444 -s 1 -d 2 -p tcp -e 552 -c 0 -i 47 -a 0 -x {1.0 3.1 30 ------- null}
h -t 0.820476444444444 -s 1 -d 2 -p tcp -e 552 -c 0 -i 47 -a 0 -x {1.0 3.1 -1 ------- null}
r -t 0.82066311111111 -s 1 -d 2 -p tcp -e 552 -c 0 -i 40 -a 0 -x {1.0 3.1 25 ------- null}
+ -t 0.82066311111111 -s 2 -d 3 -p tcp -e 552 -c 0 -i 40 -a 0 -x {1.0 3.1 25 ------- null}