+ 0.6 1 2 tcp 40 ------- 0 1.0 3.1 0 0
- 0.6 1 2 tcp 40 ------- 0 1.0 3.1 0 0
r 0.61016 1 2 tcp 40 ------- 0 1.0 3.1 0 0
+ 0.61016 2 3 tcp 40 ------- 0 1.0 3.1 0 0
- 0.61016 2 3 tcp 40 ------- 0 1.0 3.1 0 0
r 0.620516 2 3 tcp 40 ------- 0 1.0 3.1 0 0
+ 0.620516 3 2 ack 40 ------- 0 3.1 1.0 0 1
- 0.620516 3 2 ack 40 ------- 0 3.1 1.0 0 1
r 0.630871 3 2 ack 40 ------- 0 3.1 1.0 0 1
+ 0.630871 2 1 ack 40 ------- 0 3.1 1.0 0 1
- 0.630871 2 1 ack 40 ------- 0 3.1 1.0 0 1
r 0.641031 2 1 ack 40 ------- 0 3.1 1.0 0 1
+ 0.641031 1 2 tcp 552 ------- 0 1.0 3.1 1 2
- 0.641031 1 2 tcp 552 ------- 0 1.0 3.1 1 2
+ 0.641031 1 2 tcp 552 ------- 0 1.0 3.1 2 3
- 0.643239 1 2 tcp 552 ------- 0 1.0 3.1 2 3
r 0.653239 1 2 tcp 552 ------- 0 1.0 3.1 1 2
+ 0.653239 2 3 tcp 552 ------- 0 1.0 3.1 1 2
- 0.653239 2 3 tcp 552 ------- 0 1.0 3.1 1 2
r 0.655447 1 2 tcp 552 ------- 0 1.0 3.1 2 3
+ 0.655447 2 3 tcp 552 ------- 0 1.0 3.1 2 3
- 0.658146 2 3 tcp 552 ------- 0 1.0 3.1 2 3
r 0.668146 2 3 tcp 552 ------- 0 1.0 3.1 1 2
+ 0.668146 3 2 ack 40 ------- 0 3.1 1.0 1 4
- 0.668146 3 2 ack 40 ------- 0 3.1 1.0 1 4
r 0.673052 2 3 tcp 552 ------- 0 1.0 3.1 2 3
+ 0.673052 3 2 ack 40 ------- 0 3.1 1.0 2 5
- 0.673052 3 2 ack 40 ------- 0 3.1 1.0 2 5
r 0.678501 3 2 ack 40 ------- 0 3.1 1.0 1 4
+ 0.678501 2 1 ack 40 ------- 0 3.1 1.0 1 4
- 0.678501 2 1 ack 40 ------- 0 3.1 1.0 1 4
r 0.683408 3 2 ack 40 ------- 0 3.1 1.0 2 5
+ 0.683408 2 1 ack 40 ------- 0 3.1 1.0 2 5
- 0.683408 2 1 ack 40 ------- 0 3.1 1.0 2 5
r 0.688661 2 1 ack 40 ------- 0 3.1 1.0 1 4
+ 0.688661 1 2 tcp 552 ------- 0 1.0 3.1 3 6
- 0.688661 1 2 tcp 552 ------- 0 1.0 3.1 3 6
+ 0.688661 1 2 tcp 552 ------- 0 1.0 3.1 4 7
- 0.690869 1 2 tcp 552 ------- 0 1.0 3.1 4 7
r 0.693568 2 1 ack 40 ------- 0 3.1 1.0 2 5
+ 0.693568 1 2 tcp 552 ------- 0 1.0 3.1 5 8
- 0.693568 1 2 tcp 552 ------- 0 1.0 3.1 5 8
+ 0.693568 1 2 tcp 552 ------- 0 1.0 3.1 6 9
- 0.695776 1 2 tcp 552 ------- 0 1.0 3.1 6 9
r 0.700869 1 2 tcp 552 ------- 0 1.0 3.1 3 6
+ 0.700869 2 3 tcp 552 ------- 0 1.0 3.1 3 6
- 0.700869 2 3 tcp 552 ------- 0 1.0 3.1 3 6
r 0.703077 1 2 tcp 552 ------- 0 1.0 3.1 4 7
+ 0.703077 2 3 tcp 552 ------- 0 1.0 3.1 4 7
r 0.705776 1 2 tcp 552 ------- 0 1.0 3.1 5 8
+ 0.705776 2 3 tcp 552 ------- 0 1.0 3.1 5 8
- 0.705776 2 3 tcp 552 ------- 0 1.0 3.1 4 7
r 0.707984 1 2 tcp 552 ------- 0 1.0 3.1 6 9
+ 0.707984 2 3 tcp 552 ------- 0 1.0 3.1 6 9
- 0.710683 2 3 tcp 552 ------- 0 1.0 3.1 5 8
- 0.715589 2 3 tcp 552 ------- 0 1.0 3.1 6 9
r 0.715776 2 3 tcp 552 ------- 0 1.0 3.1 3 6
+ 0.715776 3 2 ack 40 ------- 0 3.1 1.0 3 10
- 0.715776 3 2 ack 40 ------- 0 3.1 1.0 3 10
r 0.720683 2 3 tcp 552 ------- 0 1.0 3.1 4 7
+ 0.720683 3 2 ack 40 ------- 0 3.1 1.0 4 11
- 0.720683 3 2 ack 40 ------- 0 3.1 1.0 4 11
r 0.725589 2 3 tcp 552 ------- 0 1.0 3.1 5 8
+ 0.725589 3 2 ack 40 ------- 0 3.1 1.0 5 12
- 0.725589 3 2 ack 40 ------- 0 3.1 1.0 5 12
r 0.726132 3 2 ack 40 ------- 0 3.1 1.0 3 10
+ 0.726132 2 1 ack 40 ------- 0 3.1 1.0 3 10
- 0.726132 2 1 ack 40 ------- 0 3.1 1.0 3 10
r 0.730496 2 3 tcp 552 ------- 0 1.0 3.1 6 9
+ 0.730496 3 2 ack 40 ------- 0 3.1 1.0 6 13
- 0.730496 3 2 ack 40 ------- 0 3.1 1.0 6 13
r 0.731038 3 2 ack 40 ------- 0 3.1 1.0 4 11
+ 0.731038 2 1 ack 40 ------- 0 3.1 1.0 4 11
- 0.731038 2 1 ack 40 ------- 0 3.1 1.0 4 11
r 0.735945 3 2 ack 40 ------- 0 3.1 1.0 5 12
+ 0.735945 2 1 ack 40 ------- 0 3.1 1.0 5 12
- 0.735945 2 1 ack 40 ------- 0 3.1 1.0 5 12
r 0.736292 2 1 ack 40 ------- 0 3.1 1.0 3 10
+ 0.736292 1 2 tcp 552 ------- 0 1.0 3.1 7 14
- 0.736292 1 2 tcp 552 ------- 0 1.0 3.1 7 14
+ 0.736292 1 2 tcp 552 ------- 0 1.0 3.1 8 15
- 0.7385 1 2 tcp 552 ------- 0 1.0 3.1 8 15
r 0.740852 3 2 ack 40 ------- 0 3.1 1.0 6 13
+ 0.740852 2 1 ack 40 ------- 0 3.1 1.0 6 13
- 0.740852 2 1 ack 40 ------- 0 3.1 1.0 6 13
r 0.741198 2 1 ack 40 ------- 0 3.1 1.0 4 11
+ 0.741198 1 2 tcp 552 ------- 0 1.0 3.1 9 16
- 0.741198 1 2 tcp 552 ------- 0 1.0 3.1 9 16
+ 0.741198 1 2 tcp 552 ------- 0 1.0 3.1 10 17
- 0.743406 1 2 tcp 552 ------- 0 1.0 3.1 10 17
r 0.746105 2 1 ack 40 ------- 0 3.1 1.0 5 12
+ 0.746105 1 2 tcp 552 ------- 0 1.0 3.1 11 18
- 0.746105 1 2 tcp 552 ------- 0 1.0 3.1 11 18
+ 0.746105 1 2 tcp 552 ------- 0 1.0 3.1 12 19
- 0.748313 1 2 tcp 552 ------- 0 1.0 3.1 12 19
r 0.7485 1 2 tcp 552 ------- 0 1.0 3.1 7 14
+ 0.7485 2 3 tcp 552 ------- 0 1.0 3.1 7 14
- 0.7485 2 3 tcp 552 ------- 0 1.0 3.1 7 14
r 0.750708 1 2 tcp 552 ------- 0 1.0 3.1 8 15
+ 0.750708 2 3 tcp 552 ------- 0 1.0 3.1 8 15
r 0.751012 2 1 ack 40 ------- 0 3.1 1.0 6 13
+ 0.751012 1 2 tcp 552 ------- 0 1.0 3.1 13 20
- 0.751012 1 2 tcp 552 ------- 0 1.0 3.1 13 20
+ 0.751012 1 2 tcp 552 ------- 0 1.0 3.1 14 21
- 0.75322 1 2 tcp 552 ------- 0 1.0 3.1 14 21
r 0.753406 1 2 tcp 552 ------- 0 1.0 3.1 9 16
+ 0.753406 2 3 tcp 552 ------- 0 1.0 3.1 9 16
- 0.753406 2 3 tcp 552 ------- 0 1.0 3.1 8 15
r 0.755614 1 2 tcp 552 ------- 0 1.0 3.1 10 17
+ 0.755614 2 3 tcp 552 ------- 0 1.0 3.1 10 17
r 0.758313 1 2 tcp 552 ------- 0 1.0 3.1 11 18
+ 0.758313 2 3 tcp 552 ------- 0 1.0 3.1 11 18
- 0.758313 2 3 tcp 552 ------- 0 1.0 3.1 9 16
r 0.760521 1 2 tcp 552 ------- 0 1.0 3.1 12 19
+ 0.760521 2 3 tcp 552 ------- 0 1.0 3.1 12 19
r 0.76322 1 2 tcp 552 ------- 0 1.0 3.1 13 20
+ 0.76322 2 3 tcp 552 ------- 0 1.0 3.1 13 20
- 0.76322 2 3 tcp 552 ------- 0 1.0 3.1 10 17
r 0.763406 2 3 tcp 552 ------- 0 1.0 3.1 7 14
+ 0.763406 3 2 ack 40 ------- 0 3.1 1.0 7 22
- 0.763406 3 2 ack 40 ------- 0 3.1 1.0 7 22
r 0.765428 1 2 tcp 552 ------- 0 1.0 3.1 14 21
+ 0.765428 2 3 tcp 552 ------- 0 1.0 3.1 14 21
- 0.768126 2 3 tcp 552 ------- 0 1.0 3.1 11 18
r 0.768313 2 3 tcp 552 ------- 0 1.0 3.1 8 15
+ 0.768313 3 2 ack 40 ------- 0 3.1 1.0 8 23
- 0.768313 3 2 ack 40 ------- 0 3.1 1.0 8 23
- 0.773033 2 3 tcp 552 ------- 0 1.0 3.1 12 19
r 0.77322 2 3 tcp 552 ------- 0 1.0 3.1 9 16
+ 0.77322 3 2 ack 40 ------- 0 3.1 1.0 9 24
- 0.77322 3 2 ack 40 ------- 0 3.1 1.0 9 24
r 0.773762 3 2 ack 40 ------- 0 3.1 1.0 7 22
+ 0.773762 2 1 ack 40 ------- 0 3.1 1.0 7 22
- 0.773762 2 1 ack 40 ------- 0 3.1 1.0 7 22
- 0.77794 2 3 tcp 552 ------- 0 1.0 3.1 13 20
r 0.778126 2 3 tcp 552 ------- 0 1.0 3.1 10 17
+ 0.778126 3 2 ack 40 ------- 0 3.1 1.0 10 25
- 0.778126 3 2 ack 40 ------- 0 3.1 1.0 10 25
r 0.778668 3 2 ack 40 ------- 0 3.1 1.0 8 23
+ 0.778668 2 1 ack 40 ------- 0 3.1 1.0 8 23
- 0.778668 2 1 ack 40 ------- 0 3.1 1.0 8 23
- 0.782846 2 3 tcp 552 ------- 0 1.0 3.1 14 21
r 0.783033 2 3 tcp 552 ------- 0 1.0 3.1 11 18
+ 0.783033 3 2 ack 40 ------- 0 3.1 1.0 11 26
- 0.783033 3 2 ack 40 ------- 0 3.1 1.0 11 26
r 0.783575 3 2 ack 40 ------- 0 3.1 1.0 9 24
+ 0.783575 2 1 ack 40 ------- 0 3.1 1.0 9 24
- 0.783575 2 1 ack 40 ------- 0 3.1 1.0 9 24
r 0.783922 2 1 ack 40 ------- 0 3.1 1.0 7 22
+ 0.783922 1 2 tcp 552 ------- 0 1.0 3.1 15 27
- 0.783922 1 2 tcp 552 ------- 0 1.0 3.1 15 27
+ 0.783922 1 2 tcp 552 ------- 0 1.0 3.1 16 28
- 0.78613 1 2 tcp 552 ------- 0 1.0 3.1 16 28
r 0.78794 2 3 tcp 552 ------- 0 1.0 3.1 12 19
+ 0.78794 3 2 ack 40 ------- 0 3.1 1.0 12 29
- 0.78794 3 2 ack 40 ------- 0 3.1 1.0 12 29
r 0.788482 3 2 ack 40 ------- 0 3.1 1.0 10 25
+ 0.788482 2 1 ack 40 ------- 0 3.1 1.0 10 25
- 0.788482 2 1 ack 40 ------- 0 3.1 1.0 10 25
r 0.788828 2 1 ack 40 ------- 0 3.1 1.0 8 23
+ 0.788828 1 2 tcp 552 ------- 0 1.0 3.1 17 30
- 0.788828 1 2 tcp 552 ------- 0 1.0 3.1 17 30
+ 0.788828 1 2 tcp 552 ------- 0 1.0 3.1 18 31
- 0.791036 1 2 tcp 552 ------- 0 1.0 3.1 18 31
r 0.792846 2 3 tcp 552 ------- 0 1.0 3.1 13 20
+ 0.792846 3 2 ack 40 ------- 0 3.1 1.0 13 32
- 0.792846 3 2 ack 40 ------- 0 3.1 1.0 13 32
r 0.793388 3 2 ack 40 ------- 0 3.1 1.0 11 26
+ 0.793388 2 1 ack 40 ------- 0 3.1 1.0 11 26
- 0.793388 2 1 ack 40 ------- 0 3.1 1.0 11 26
r 0.793735 2 1 ack 40 ------- 0 3.1 1.0 9 24
+ 0.793735 1 2 tcp 552 ------- 0 1.0 3.1 19 33
- 0.793735 1 2 tcp 552 ------- 0 1.0 3.1 19 33
+ 0.793735 1 2 tcp 552 ------- 0 1.0 3.1 20 34
- 0.795943 1 2 tcp 552 ------- 0 1.0 3.1 20 34
r 0.79613 1 2 tcp 552 ------- 0 1.0 3.1 15 27
+ 0.79613 2 3 tcp 552 ------- 0 1.0 3.1 15 27
- 0.79613 2 3 tcp 552 ------- 0 1.0 3.1 15 27
r 0.797753 2 3 tcp 552 ------- 0 1.0 3.1 14 21
+ 0.797753 3 2 ack 40 ------- 0 3.1 1.0 14 35
- 0.797753 3 2 ack 40 ------- 0 3.1 1.0 14 35
r 0.798295 3 2 ack 40 ------- 0 3.1 1.0 12 29
+ 0.798295 2 1 ack 40 ------- 0 3.1 1.0 12 29
- 0.798295 2 1 ack 40 ------- 0 3.1 1.0 12 29
r 0.798338 1 2 tcp 552 ------- 0 1.0 3.1 16 28
+ 0.798338 2 3 tcp 552 ------- 0 1.0 3.1 16 28
r 0.798642 2 1 ack 40 ------- 0 3.1 1.0 10 25
+ 0.798642 1 2 tcp 552 ------- 0 1.0 3.1 21 36
- 0.798642 1 2 tcp 552 ------- 0 1.0 3.1 21 36
+ 0.798642 1 2 tcp 552 ------- 0 1.0 3.1 22 37
- 0.80085 1 2 tcp 552 ------- 0 1.0 3.1 22 37
r 0.801036 1 2 tcp 552 ------- 0 1.0 3.1 17 30
+ 0.801036 2 3 tcp 552 ------- 0 1.0 3.1 17 30
- 0.801036 2 3 tcp 552 ------- 0 1.0 3.1 16 28
r 0.803202 3 2 ack 40 ------- 0 3.1 1.0 13 32
+ 0.803202 2 1 ack 40 ------- 0 3.1 1.0 13 32
- 0.803202 2 1 ack 40 ------- 0 3.1 1.0 13 32
r 0.803244 1 2 tcp 552 ------- 0 1.0 3.1 18 31
+ 0.803244 2 3 tcp 552 ------- 0 1.0 3.1 18 31
r 0.803548 2 1 ack 40 ------- 0 3.1 1.0 11 26
+ 0.803548 1 2 tcp 552 ------- 0 1.0 3.1 23 38
- 0.803548 1 2 tcp 552 ------- 0 1.0 3.1 23 38
+ 0.803548 1 2 tcp 552 ------- 0 1.0 3.1 24 39
- 0.805756 1 2 tcp 552 ------- 0 1.0 3.1 24 39
r 0.805943 1 2 tcp 552 ------- 0 1.0 3.1 19 33
+ 0.805943 2 3 tcp 552 ------- 0 1.0 3.1 19 33
- 0.805943 2 3 tcp 552 ------- 0 1.0 3.1 17 30
r 0.808108 3 2 ack 40 ------- 0 3.1 1.0 14 35
+ 0.808108 2 1 ack 40 ------- 0 3.1 1.0 14 35
- 0.808108 2 1 ack 40 ------- 0 3.1 1.0 14 35
r 0.808151 1 2 tcp 552 ------- 0 1.0 3.1 20 34
+ 0.808151 2 3 tcp 552 ------- 0 1.0 3.1 20 34
r 0.808455 2 1 ack 40 ------- 0 3.1 1.0 12 29
+ 0.808455 1 2 tcp 552 ------- 0 1.0 3.1 25 40
- 0.808455 1 2 tcp 552 ------- 0 1.0 3.1 25 40
+ 0.808455 1 2 tcp 552 ------- 0 1.0 3.1 26 41
- 0.810663 1 2 tcp 552 ------- 0 1.0 3.1 26 41
r 0.81085 1 2 tcp 552 ------- 0 1.0 3.1 21 36
+ 0.81085 2 3 tcp 552 ------- 0 1.0 3.1 21 36
- 0.81085 2 3 tcp 552 ------- 0 1.0 3.1 18 31
r 0.811036 2 3 tcp 552 ------- 0 1.0 3.1 15 27
+ 0.811036 3 2 ack 40 ------- 0 3.1 1.0 15 42
- 0.811036 3 2 ack 40 ------- 0 3.1 1.0 15 42
r 0.813058 1 2 tcp 552 ------- 0 1.0 3.1 22 37
+ 0.813058 2 3 tcp 552 ------- 0 1.0 3.1 22 37
r 0.813362 2 1 ack 40 ------- 0 3.1 1.0 13 32
+ 0.813362 1 2 tcp 552 ------- 0 1.0 3.1 27 43
- 0.813362 1 2 tcp 552 ------- 0 1.0 3.1 27 43
+ 0.813362 1 2 tcp 552 ------- 0 1.0 3.1 28 44
- 0.81557 1 2 tcp 552 ------- 0 1.0 3.1 28 44
r 0.815756 1 2 tcp 552 ------- 0 1.0 3.1 23 38
+ 0.815756 2 3 tcp 552 ------- 0 1.0 3.1 23 38
- 0.815756 2 3 tcp 552 ------- 0 1.0 3.1 19 33
r 0.815943 2 3 tcp 552 ------- 0 1.0 3.1 16 28
+ 0.815943 3 2 ack 40 ------- 0 3.1 1.0 16 45
- 0.815943 3 2 ack 40 ------- 0 3.1 1.0 16 45
r 0.817964 1 2 tcp 552 ------- 0 1.0 3.1 24 39
+ 0.817964 2 3 tcp 552 ------- 0 1.0 3.1 24 39
r 0.818268 2 1 ack 40 ------- 0 3.1 1.0 14 35
+ 0.818268 1 2 tcp 552 ------- 0 1.0 3.1 29 46
- 0.818268 1 2 tcp 552 ------- 0 1.0 3.1 29 46
+ 0.818268 1 2 tcp 552 ------- 0 1.0 3.1 30 47
- 0.820476 1 2 tcp 552 ------- 0 1.0 3.1 30 47
r 0.820663 1 2 tcp 552 ------- 0 1.0 3.1 25 40
+ 0.820663 2 3 tcp 552 ------- 0 1.0 3.1 25 40
- 0.820663 2 3 tcp 552 ------- 0 1.0 3.1 20 34
r 0.82085 2 3 tcp 552 ------- 0 1.0 3.1 17 30
+ 0.82085 3 2 ack 40 ------- 0 3.1 1.0 17 48
- 0.82085 3 2 ack 40 ------- 0 3.1 1.0 17 48
r 0.821392 3 2 ack 40 ------- 0 3.1 1.0 15 42
+ 0.821392 2 1 ack 40 ------- 0 3.1 1.0 15 42
- 0.821392 2 1 ack 40 ------- 0 3.1 1.0 15 42
r 0.822871 1 2 tcp 552 ------- 0 1.0 3.1 26 41
+ 0.822871 2 3 tcp 552 ------- 0 1.0 3.1 26 41
r 0.82557 1 2 tcp 552 ------- 0 1.0 3.1 27 43
+ 0.82557 2 3 tcp 552 ------- 0 1.0 3.1 27 43
- 0.82557 2 3 tcp 552 ------- 0 1.0 3.1 21 36
r 0.825756 2 3 tcp 552 ------- 0 1.0 3.1 18 31
+ 0.825756 3 2 ack 40 ------- 0 3.1 1.0 18 49
- 0.825756 3 2 ack 40 ------- 0 3.1 1.0 18 49
r 0.826299 3 2 ack 40 ------- 0 3.1 1.0 16 45
+ 0.826299 2 1 ack 40 ------- 0 3.1 1.0 16 45
- 0.826299 2 1 ack 40 ------- 0 3.1 1.0 16 45
r 0.827778 1 2 tcp 552 ------- 0 1.0 3.1 28 44
+ 0.827778 2 3 tcp 552 ------- 0 1.0 3.1 28 44
r 0.830476 1 2 tcp 552 ------- 0 1.0 3.1 29 46
+ 0.830476 2 3 tcp 552 ------- 0 1.0 3.1 29 46
- 0.830476 2 3 tcp 552 ------- 0 1.0 3.1 22 37
r 0.830663 2 3 tcp 552 ------- 0 1.0 3.1 19 33
+ 0.830663 3 2 ack 40 ------- 0 3.1 1.0 19 50
- 0.830663 3 2 ack 40 ------- 0 3.1 1.0 19 50
r 0.831205 3 2 ack 40 ------- 0 3.1 1.0 17 48
+ 0.831205 2 1 ack 40 ------- 0 3.1 1.0 17 48
- 0.831205 2 1 ack 40 ------- 0 3.1 1.0 17 48
r 0.831552 2 1 ack 40 ------- 0 3.1 1.0 15 42
+ 0.831552 1 2 tcp 552 ------- 0 1.0 3.1 31 51
- 0.831552 1 2 tcp 552 ------- 0 1.0 3.1 31 51
+ 0.831552 1 2 tcp 552 ------- 0 1.0 3.1 32 52
r 0.832684 1 2 tcp 552 ------- 0 1.0 3.1 30 47
+ 0.832684 2 3 tcp 552 ------- 0 1.0 3.1 30 47
- 0.83376 1 2 tcp 552 ------- 0 1.0 3.1 32 52
- 0.835383 2 3 tcp 552 ------- 0 1.0 3.1 23 38
r 0.83557 2 3 tcp 552 ------- 0 1.0 3.1 20 34
+ 0.83557 3 2 ack 40 ------- 0 3.1 1.0 20 53
- 0.83557 3 2 ack 40 ------- 0 3.1 1.0 20 53
r 0.836112 3 2 ack 40 ------- 0 3.1 1.0 18 49
+ 0.836112 2 1 ack 40 ------- 0 3.1 1.0 18 49
- 0.836112 2 1 ack 40 ------- 0 3.1 1.0 18 49
r 0.836459 2 1 ack 40 ------- 0 3.1 1.0 16 45
+ 0.836459 1 2 tcp 552 ------- 0 1.0 3.1 33 54
- 0.836459 1 2 tcp 552 ------- 0 1.0 3.1 33 54
+ 0.836459 1 2 tcp 552 ------- 0 1.0 3.1 34 55
- 0.838667 1 2 tcp 552 ------- 0 1.0 3.1 34 55
- 0.84029 2 3 tcp 552 ------- 0 1.0 3.1 24 39
r 0.840476 2 3 tcp 552 ------- 0 1.0 3.1 21 36
+ 0.840476 3 2 ack 40 ------- 0 3.1 1.0 21 56
- 0.840476 3 2 ack 40 ------- 0 3.1 1.0 21 56
r 0.841019 3 2 ack 40 ------- 0 3.1 1.0 19 50
+ 0.841019 2 1 ack 40 ------- 0 3.1 1.0 19 50
- 0.841019 2 1 ack 40 ------- 0 3.1 1.0 19 50
r 0.841365 2 1 ack 40 ------- 0 3.1 1.0 17 48
+ 0.841365 1 2 tcp 552 ------- 0 1.0 3.1 35 57
- 0.841365 1 2 tcp 552 ------- 0 1.0 3.1 35 57
+ 0.841365 1 2 tcp 552 ------- 0 1.0 3.1 36 58
- 0.843573 1 2 tcp 552 ------- 0 1.0 3.1 36 58
r 0.84376 1 2 tcp 552 ------- 0 1.0 3.1 31 51
+ 0.84376 2 3 tcp 552 ------- 0 1.0 3.1 31 51
- 0.845196 2 3 tcp 552 ------- 0 1.0 3.1 25 40
r 0.845383 2 3 tcp 552 ------- 0 1.0 3.1 22 37
+ 0.845383 3 2 ack 40 ------- 0 3.1 1.0 22 59
- 0.845383 3 2 ack 40 ------- 0 3.1 1.0 22 59
r 0.845925 3 2 ack 40 ------- 0 3.1 1.0 20 53
+ 0.845925 2 1 ack 40 ------- 0 3.1 1.0 20 53
- 0.845925 2 1 ack 40 ------- 0 3.1 1.0 20 53
r 0.845968 1 2 tcp 552 ------- 0 1.0 3.1 32 52
+ 0.845968 2 3 tcp 552 ------- 0 1.0 3.1 32 52
r 0.846272 2 1 ack 40 ------- 0 3.1 1.0 18 49
+ 0.846272 1 2 tcp 552 ------- 0 1.0 3.1 37 60
- 0.846272 1 2 tcp 552 ------- 0 1.0 3.1 37 60
+ 0.846272 1 2 tcp 552 ------- 0 1.0 3.1 38 61
- 0.84848 1 2 tcp 552 ------- 0 1.0 3.1 38 61
r 0.848667 1 2 tcp 552 ------- 0 1.0 3.1 33 54
+ 0.848667 2 3 tcp 552 ------- 0 1.0 3.1 33 54
- 0.850103 2 3 tcp 552 ------- 0 1.0 3.1 26 41
r 0.85029 2 3 tcp 552 ------- 0 1.0 3.1 23 38
+ 0.85029 3 2 ack 40 ------- 0 3.1 1.0 23 62
- 0.85029 3 2 ack 40 ------- 0 3.1 1.0 23 62
r 0.850832 3 2 ack 40 ------- 0 3.1 1.0 21 56
+ 0.850832 2 1 ack 40 ------- 0 3.1 1.0 21 56
- 0.850832 2 1 ack 40 ------- 0 3.1 1.0 21 56
r 0.850875 1 2 tcp 552 ------- 0 1.0 3.1 34 55
+ 0.850875 2 3 tcp 552 ------- 0 1.0 3.1 34 55
r 0.851179 2 1 ack 40 ------- 0 3.1 1.0 19 50
+ 0.851179 1 2 tcp 552 ------- 0 1.0 3.1 39 63
- 0.851179 1 2 tcp 552 ------- 0 1.0 3.1 39 63
r 0.853573 1 2 tcp 552 ------- 0 1.0 3.1 35 57
+ 0.853573 2 3 tcp 552 ------- 0 1.0 3.1 35 57
- 0.85501 2 3 tcp 552 ------- 0 1.0 3.1 27 43
r 0.855196 2 3 tcp 552 ------- 0 1.0 3.1 24 39
+ 0.855196 3 2 ack 40 ------- 0 3.1 1.0 24 64
- 0.855196 3 2 ack 40 ------- 0 3.1 1.0 24 64
r 0.855739 3 2 ack 40 ------- 0 3.1 1.0 22 59
+ 0.855739 2 1 ack 40 ------- 0 3.1 1.0 22 59
- 0.855739 2 1 ack 40 ------- 0 3.1 1.0 22 59
r 0.855781 1 2 tcp 552 ------- 0 1.0 3.1 36 58
+ 0.855781 2 3 tcp 552 ------- 0 1.0 3.1 36 58
r 0.856085 2 1 ack 40 ------- 0 3.1 1.0 20 53
+ 0.856085 1 2 tcp 552 ------- 0 1.0 3.1 40 65
- 0.856085 1 2 tcp 552 ------- 0 1.0 3.1 40 65
r 0.85848 1 2 tcp 552 ------- 0 1.0 3.1 37 60
+ 0.85848 2 3 tcp 552 ------- 0 1.0 3.1 37 60
- 0.859916 2 3 tcp 552 ------- 0 1.0 3.1 28 44
r 0.860103 2 3 tcp 552 ------- 0 1.0 3.1 25 40
+ 0.860103 3 2 ack 40 ------- 0 3.1 1.0 25 66
- 0.860103 3 2 ack 40 ------- 0 3.1 1.0 25 66
r 0.860645 3 2 ack 40 ------- 0 3.1 1.0 23 62
+ 0.860645 2 1 ack 40 ------- 0 3.1 1.0 23 62
- 0.860645 2 1 ack 40 ------- 0 3.1 1.0 23 62
r 0.860688 1 2 tcp 552 ------- 0 1.0 3.1 38 61
+ 0.860688 2 3 tcp 552 ------- 0 1.0 3.1 38 61
r 0.860992 2 1 ack 40 ------- 0 3.1 1.0 21 56
+ 0.860992 1 2 tcp 552 ------- 0 1.0 3.1 41 67
- 0.860992 1 2 tcp 552 ------- 0 1.0 3.1 41 67
r 0.863387 1 2 tcp 552 ------- 0 1.0 3.1 39 63
+ 0.863387 2 3 tcp 552 ------- 0 1.0 3.1 39 63
- 0.864823 2 3 tcp 552 ------- 0 1.0 3.1 29 46
r 0.86501 2 3 tcp 552 ------- 0 1.0 3.1 26 41
+ 0.86501 3 2 ack 40 ------- 0 3.1 1.0 26 68
- 0.86501 3 2 ack 40 ------- 0 3.1 1.0 26 68
r 0.865552 3 2 ack 40 ------- 0 3.1 1.0 24 64
+ 0.865552 2 1 ack 40 ------- 0 3.1 1.0 24 64
- 0.865552 2 1 ack 40 ------- 0 3.1 1.0 24 64
r 0.865899 2 1 ack 40 ------- 0 3.1 1.0 22 59
+ 0.865899 1 2 tcp 552 ------- 0 1.0 3.1 42 69
- 0.865899 1 2 tcp 552 ------- 0 1.0 3.1 42 69
r 0.868293 1 2 tcp 552 ------- 0 1.0 3.1 40 65
+ 0.868293 2 3 tcp 552 ------- 0 1.0 3.1 40 65
- 0.86973 2 3 tcp 552 ------- 0 1.0 3.1 30 47
r 0.869916 2 3 tcp 552 ------- 0 1.0 3.1 27 43
+ 0.869916 3 2 ack 40 ------- 0 3.1 1.0 27 70
- 0.869916 3 2 ack 40 ------- 0 3.1 1.0 27 70
r 0.870459 3 2 ack 40 ------- 0 3.1 1.0 25 66
+ 0.870459 2 1 ack 40 ------- 0 3.1 1.0 25 66
- 0.870459 2 1 ack 40 ------- 0 3.1 1.0 25 66
r 0.870805 2 1 ack 40 ------- 0 3.1 1.0 23 62
+ 0.870805 1 2 tcp 552 ------- 0 1.0 3.1 43 71
- 0.870805 1 2 tcp 552 ------- 0 1.0 3.1 43 71
r 0.8732 1 2 tcp 552 ------- 0 1.0 3.1 41 67
+ 0.8732 2 3 tcp 552 ------- 0 1.0 3.1 41 67
- 0.874636 2 3 tcp 552 ------- 0 1.0 3.1 31 51
r 0.874823 2 3 tcp 552 ------- 0 1.0 3.1 28 44
+ 0.874823 3 2 ack 40 ------- 0 3.1 1.0 28 72
- 0.874823 3 2 ack 40 ------- 0 3.1 1.0 28 72
r 0.875365 3 2 ack 40 ------- 0 3.1 1.0 26 68
+ 0.875365 2 1 ack 40 ------- 0 3.1 1.0 26 68
- 0.875365 2 1 ack 40 ------- 0 3.1 1.0 26 68
r 0.875712 2 1 ack 40 ------- 0 3.1 1.0 24 64
+ 0.875712 1 2 tcp 552 ------- 0 1.0 3.1 44 73
- 0.875712 1 2 tcp 552 ------- 0 1.0 3.1 44 73
r 0.878107 1 2 tcp 552 ------- 0 1.0 3.1 42 69
+ 0.878107 2 3 tcp 552 ------- 0 1.0 3.1 42 69
- 0.879543 2 3 tcp 552 ------- 0 1.0 3.1 32 52
r 0.87973 2 3 tcp 552 ------- 0 1.0 3.1 29 46
+ 0.87973 3 2 ack 40 ------- 0 3.1 1.0 29 74
- 0.87973 3 2 ack 40 ------- 0 3.1 1.0 29 74
r 0.880272 3 2 ack 40 ------- 0 3.1 1.0 27 70
+ 0.880272 2 1 ack 40 ------- 0 3.1 1.0 27 70
- 0.880272 2 1 ack 40 ------- 0 3.1 1.0 27 70
r 0.880619 2 1 ack 40 ------- 0 3.1 1.0 25 66
+ 0.880619 1 2 tcp 552 ------- 0 1.0 3.1 45 75
- 0.880619 1 2 tcp 552 ------- 0 1.0 3.1 45 75
r 0.883013 1 2 tcp 552 ------- 0 1.0 3.1 43 71
+ 0.883013 2 3 tcp 552 ------- 0 1.0 3.1 43 71
- 0.88445 2 3 tcp 552 ------- 0 1.0 3.1 33 54
r 0.884636 2 3 tcp 552 ------- 0 1.0 3.1 30 47
+ 0.884636 3 2 ack 40 ------- 0 3.1 1.0 30 76
- 0.884636 3 2 ack 40 ------- 0 3.1 1.0 30 76
r 0.885179 3 2 ack 40 ------- 0 3.1 1.0 28 72
+ 0.885179 2 1 ack 40 ------- 0 3.1 1.0 28 72
- 0.885179 2 1 ack 40 ------- 0 3.1 1.0 28 72
r 0.885525 2 1 ack 40 ------- 0 3.1 1.0 26 68
+ 0.885525 1 2 tcp 552 ------- 0 1.0 3.1 46 77
- 0.885525 1 2 tcp 552 ------- 0 1.0 3.1 46 77
r 0.88792 1 2 tcp 552 ------- 0 1.0 3.1 44 73
+ 0.88792 2 3 tcp 552 ------- 0 1.0 3.1 44 73
- 0.889356 2 3 tcp 552 ------- 0 1.0 3.1 34 55
r 0.889543 2 3 tcp 552 ------- 0 1.0 3.1 31 51
+ 0.889543 3 2 ack 40 ------- 0 3.1 1.0 31 78
- 0.889543 3 2 ack 40 ------- 0 3.1 1.0 31 78
r 0.890085 3 2 ack 40 ------- 0 3.1 1.0 29 74
+ 0.890085 2 1 ack 40 ------- 0 3.1 1.0 29 74
- 0.890085 2 1 ack 40 ------- 0 3.1 1.0 29 74
r 0.890432 2 1 ack 40 ------- 0 3.1 1.0 27 70
+ 0.890432 1 2 tcp 552 ------- 0 1.0 3.1 47 79
- 0.890432 1 2 tcp 552 ------- 0 1.0 3.1 47 79
r 0.892827 1 2 tcp 552 ------- 0 1.0 3.1 45 75
+ 0.892827 2 3 tcp 552 ------- 0 1.0 3.1 45 75
- 0.894263 2 3 tcp 552 ------- 0 1.0 3.1 35 57
r 0.89445 2 3 tcp 552 ------- 0 1.0 3.1 32 52
+ 0.89445 3 2 ack 40 ------- 0 3.1 1.0 32 80
- 0.89445 3 2 ack 40 ------- 0 3.1 1.0 32 80
r 0.894992 3 2 ack 40 ------- 0 3.1 1.0 30 76
+ 0.894992 2 1 ack 40 ------- 0 3.1 1.0 30 76
- 0.894992 2 1 ack 40 ------- 0 3.1 1.0 30 76
r 0.895339 2 1 ack 40 ------- 0 3.1 1.0 28 72
+ 0.895339 1 2 tcp 552 ------- 0 1.0 3.1 48 81
- 0.895339 1 2 tcp 552 ------- 0 1.0 3.1 48 81
r 0.897733 1 2 tcp 552 ------- 0 1.0 3.1 46 77
+ 0.897733 2 3 tcp 552 ------- 0 1.0 3.1 46 77
- 0.89917 2 3 tcp 552 ------- 0 1.0 3.1 36 58
r 0.899356 2 3 tcp 552 ------- 0 1.0 3.1 33 54
+ 0.899356 3 2 ack 40 ------- 0 3.1 1.0 33 82
- 0.899356 3 2 ack 40 ------- 0 3.1 1.0 33 82
r 0.899899 3 2 ack 40 ------- 0 3.1 1.0 31 78
+ 0.899899 2 1 ack 40 ------- 0 3.1 1.0 31 78
- 0.899899 2 1 ack 40 ------- 0 3.1 1.0 31 78
r 0.900245 2 1 ack 40 ------- 0 3.1 1.0 29 74
+ 0.900245 1 2 tcp 552 ------- 0 1.0 3.1 49 83
- 0.900245 1 2 tcp 552 ------- 0 1.0 3.1 49 83
r 0.90264 1 2 tcp 552 ------- 0 1.0 3.1 47 79
+ 0.90264 2 3 tcp 552 ------- 0 1.0 3.1 47 79
- 0.904076 2 3 tcp 552 ------- 0 1.0 3.1 37 60
r 0.904263 2 3 tcp 552 ------- 0 1.0 3.1 34 55
+ 0.904263 3 2 ack 40 ------- 0 3.1 1.0 34 84
- 0.904263 3 2 ack 40 ------- 0 3.1 1.0 34 84
r 0.904805 3 2 ack 40 ------- 0 3.1 1.0 32 80
+ 0.904805 2 1 ack 40 ------- 0 3.1 1.0 32 80
- 0.904805 2 1 ack 40 ------- 0 3.1 1.0 32 80
r 0.905152 2 1 ack 40 ------- 0 3.1 1.0 30 76
+ 0.905152 1 2 tcp 552 ------- 0 1.0 3.1 50 85
- 0.905152 1 2 tcp 552 ------- 0 1.0 3.1 50 85
r 0.907547 1 2 tcp 552 ------- 0 1.0 3.1 48 81
+ 0.907547 2 3 tcp 552 ------- 0 1.0 3.1 48 81
- 0.908983 2 3 tcp 552 ------- 0 1.0 3.1 38 61
r 0.90917 2 3 tcp 552 ------- 0 1.0 3.1 35 57
+ 0.90917 3 2 ack 40 ------- 0 3.1 1.0 35 86
- 0.90917 3 2 ack 40 ------- 0 3.1 1.0 35 86
r 0.909712 3 2 ack 40 ------- 0 3.1 1.0 33 82
+ 0.909712 2 1 ack 40 ------- 0 3.1 1.0 33 82
- 0.909712 2 1 ack 40 ------- 0 3.1 1.0 33 82
r 0.910059 2 1 ack 40 ------- 0 3.1 1.0 31 78
+ 0.910059 1 2 tcp 552 ------- 0 1.0 3.1 51 87
- 0.910059 1 2 tcp 552 ------- 0 1.0 3.1 51 87
r 0.912453 1 2 tcp 552 ------- 0 1.0 3.1 49 83
+ 0.912453 2 3 tcp 552 ------- 0 1.0 3.1 49 83
- 0.91389 2 3 tcp 552 ------- 0 1.0 3.1 39 63
r 0.914076 2 3 tcp 552 ------- 0 1.0 3.1 36 58
+ 0.914076 3 2 ack 40 ------- 0 3.1 1.0 36 88
- 0.914076 3 2 ack 40 ------- 0 3.1 1.0 36 88
r 0.914619 3 2 ack 40 ------- 0 3.1 1.0 34 84
+ 0.914619 2 1 ack 40 ------- 0 3.1 1.0 34 84
- 0.914619 2 1 ack 40 ------- 0 3.1 1.0 34 84
r 0.914965 2 1 ack 40 ------- 0 3.1 1.0 32 80
+ 0.914965 1 2 tcp 552 ------- 0 1.0 3.1 52 89
- 0.914965 1 2 tcp 552 ------- 0 1.0 3.1 52 89
r 0.91736 1 2 tcp 552 ------- 0 1.0 3.1 50 85
+ 0.91736 2 3 tcp 552 ------- 0 1.0 3.1 50 85
- 0.918796 2 3 tcp 552 ------- 0 1.0 3.1 40 65
r 0.918983 2 3 tcp 552 ------- 0 1.0 3.1 37 60
+ 0.918983 3 2 ack 40 ------- 0 3.1 1.0 37 90
- 0.918983 3 2 ack 40 ------- 0 3.1 1.0 37 90
r 0.919525 3 2 ack 40 ------- 0 3.1 1.0 35 86
+ 0.919525 2 1 ack 40 ------- 0 3.1 1.0 35 86
- 0.919525 2 1 ack 40 ------- 0 3.1 1.0 35 86
r 0.919872 2 1 ack 40 ------- 0 3.1 1.0 33 82
+ 0.919872 1 2 tcp 552 ------- 0 1.0 3.1 53 91
- 0.919872 1 2 tcp 552 ------- 0 1.0 3.1 53 91
r 0.922267 1 2 tcp 552 ------- 0 1.0 3.1 51 87
+ 0.922267 2 3 tcp 552 ------- 0 1.0 3.1 51 87
- 0.923703 2 3 tcp 552 ------- 0 1.0 3.1 41 67
r 0.92389 2 3 tcp 552 ------- 0 1.0 3.1 38 61
+ 0.92389 3 2 ack 40 ------- 0 3.1 1.0 38 92
- 0.92389 3 2 ack 40 ------- 0 3.1 1.0 38 92
r 0.924432 3 2 ack 40 ------- 0 3.1 1.0 36 88
+ 0.924432 2 1 ack 40 ------- 0 3.1 1.0 36 88
- 0.924432 2 1 ack 40 ------- 0 3.1 1.0 36 88
r 0.924779 2 1 ack 40 ------- 0 3.1 1.0 34 84
+ 0.924779 1 2 tcp 552 ------- 0 1.0 3.1 54 93
- 0.924779 1 2 tcp 552 ------- 0 1.0 3.1 54 93
r 0.927173 1 2 tcp 552 ------- 0 1.0 3.1 52 89
+ 0.927173 2 3 tcp 552 ------- 0 1.0 3.1 52 89
- 0.92861 2 3 tcp 552 ------- 0 1.0 3.1 42 69
r 0.928796 2 3 tcp 552 ------- 0 1.0 3.1 39 63
+ 0.928796 3 2 ack 40 ------- 0 3.1 1.0 39 94
- 0.928796 3 2 ack 40 ------- 0 3.1 1.0 39 94
r 0.929339 3 2 ack 40 ------- 0 3.1 1.0 37 90
+ 0.929339 2 1 ack 40 ------- 0 3.1 1.0 37 90
- 0.929339 2 1 ack 40 ------- 0 3.1 1.0 37 90
r 0.929685 2 1 ack 40 ------- 0 3.1 1.0 35 86
+ 0.929685 1 2 tcp 552 ------- 0 1.0 3.1 55 95
- 0.929685 1 2 tcp 552 ------- 0 1.0 3.1 55 95
r 0.93208 1 2 tcp 552 ------- 0 1.0 3.1 53 91
+ 0.93208 2 3 tcp 552 ------- 0 1.0 3.1 53 91
- 0.933516 2 3 tcp 552 ------- 0 1.0 3.1 43 71
r 0.933703 2 3 tcp 552 ------- 0 1.0 3.1 40 65
+ 0.933703 3 2 ack 40 ------- 0 3.1 1.0 40 96
- 0.933703 3 2 ack 40 ------- 0 3.1 1.0 40 96
r 0.934245 3 2 ack 40 ------- 0 3.1 1.0 38 92
+ 0.934245 2 1 ack 40 ------- 0 3.1 1.0 38 92
- 0.934245 2 1 ack 40 ------- 0 3.1 1.0 38 92
r 0.934592 2 1 ack 40 ------- 0 3.1 1.0 36 88
+ 0.934592 1 2 tcp 552 ------- 0 1.0 3.1 56 97
- 0.934592 1 2 tcp 552 ------- 0 1.0 3.1 56 97
r 0.936987 1 2 tcp 552 ------- 0 1.0 3.1 54 93
+ 0.936987 2 3 tcp 552 ------- 0 1.0 3.1 54 93
- 0.938423 2 3 tcp 552 ------- 0 1.0 3.1 44 73
r 0.93861 2 3 tcp 552 ------- 0 1.0 3.1 41 67
+ 0.93861 3 2 ack 40 ------- 0 3.1 1.0 41 98
- 0.93861 3 2 ack 40 ------- 0 3.1 1.0 41 98
r 0.939152 3 2 ack 40 ------- 0 3.1 1.0 39 94
+ 0.939152 2 1 ack 40 ------- 0 3.1 1.0 39 94
- 0.939152 2 1 ack 40 ------- 0 3.1 1.0 39 94
r 0.939499 2 1 ack 40 ------- 0 3.1 1.0 37 90
+ 0.939499 1 2 tcp 552 ------- 0 1.0 3.1 57 99
- 0.939499 1 2 tcp 552 ------- 0 1.0 3.1 57 99
r 0.941893 1 2 tcp 552 ------- 0 1.0 3.1 55 95
+ 0.941893 2 3 tcp 552 ------- 0 1.0 3.1 55 95
- 0.94333 2 3 tcp 552 ------- 0 1.0 3.1 45 75
r 0.943516 2 3 tcp 552 ------- 0 1.0 3.1 42 69
+ 0.943516 3 2 ack 40 ------- 0 3.1 1.0 42 100
- 0.943516 3 2 ack 40 ------- 0 3.1 1.0 42 100
r 0.944059 3 2 ack 40 ------- 0 3.1 1.0 40 96
+ 0.944059 2 1 ack 40 ------- 0 3.1 1.0 40 96
- 0.944059 2 1 ack 40 ------- 0 3.1 1.0 40 96
r 0.944405 2 1 ack 40 ------- 0 3.1 1.0 38 92
+ 0.944405 1 2 tcp 552 ------- 0 1.0 3.1 58 101
- 0.944405 1 2 tcp 552 ------- 0 1.0 3.1 58 101
r 0.9468 1 2 tcp 552 ------- 0 1.0 3.1 56 97
+ 0.9468 2 3 tcp 552 ------- 0 1.0 3.1 56 97
- 0.948236 2 3 tcp 552 ------- 0 1.0 3.1 46 77
r 0.948423 2 3 tcp 552 ------- 0 1.0 3.1 43 71
+ 0.948423 3 2 ack 40 ------- 0 3.1 1.0 43 102
- 0.948423 3 2 ack 40 ------- 0 3.1 1.0 43 102
r 0.948965 3 2 ack 40 ------- 0 3.1 1.0 41 98
+ 0.948965 2 1 ack 40 ------- 0 3.1 1.0 41 98
- 0.948965 2 1 ack 40 ------- 0 3.1 1.0 41 98
r 0.949312 2 1 ack 40 ------- 0 3.1 1.0 39 94
+ 0.949312 1 2 tcp 552 ------- 0 1.0 3.1 59 103
- 0.949312 1 2 tcp 552 ------- 0 1.0 3.1 59 103
r 0.951707 1 2 tcp 552 ------- 0 1.0 3.1 57 99
+ 0.951707 2 3 tcp 552 ------- 0 1.0 3.1 57 99
- 0.953143 2 3 tcp 552 ------- 0 1.0 3.1 47 79
r 0.95333 2 3 tcp 552 ------- 0 1.0 3.1 44 73
+ 0.95333 3 2 ack 40 ------- 0 3.1 1.0 44 104
- 0.95333 3 2 ack 40 ------- 0 3.1 1.0 44 104
r 0.953872 3 2 ack 40 ------- 0 3.1 1.0 42 100
+ 0.953872 2 1 ack 40 ------- 0 3.1 1.0 42 100
- 0.953872 2 1 ack 40 ------- 0 3.1 1.0 42 100
r 0.954219 2 1 ack 40 ------- 0 3.1 1.0 40 96
+ 0.954219 1 2 tcp 552 ------- 0 1.0 3.1 60 105
- 0.954219 1 2 tcp 552 ------- 0 1.0 3.1 60 105
r 0.956613 1 2 tcp 552 ------- 0 1.0 3.1 58 101
+ 0.956613 2 3 tcp 552 ------- 0 1.0 3.1 58 101
- 0.95805 2 3 tcp 552 ------- 0 1.0 3.1 48 81
r 0.958236 2 3 tcp 552 ------- 0 1.0 3.1 45 75
+ 0.958236 3 2 ack 40 ------- 0 3.1 1.0 45 106
- 0.958236 3 2 ack 40 ------- 0 3.1 1.0 45 106
r 0.958779 3 2 ack 40 ------- 0 3.1 1.0 43 102
+ 0.958779 2 1 ack 40 ------- 0 3.1 1.0 43 102
- 0.958779 2 1 ack 40 ------- 0 3.1 1.0 43 102
r 0.959125 2 1 ack 40 ------- 0 3.1 1.0 41 98
+ 0.959125 1 2 tcp 552 ------- 0 1.0 3.1 61 107
- 0.959125 1 2 tcp 552 ------- 0 1.0 3.1 61 107
r 0.96152 1 2 tcp 552 ------- 0 1.0 3.1 59 103
+ 0.96152 2 3 tcp 552 ------- 0 1.0 3.1 59 103
- 0.962956 2 3 tcp 552 ------- 0 1.0 3.1 49 83
r 0.963143 2 3 tcp 552 ------- 0 1.0 3.1 46 77
+ 0.963143 3 2 ack 40 ------- 0 3.1 1.0 46 108
- 0.963143 3 2 ack 40 ------- 0 3.1 1.0 46 108
r 0.963685 3 2 ack 40 ------- 0 3.1 1.0 44 104
+ 0.963685 2 1 ack 40 ------- 0 3.1 1.0 44 104
- 0.963685 2 1 ack 40 ------- 0 3.1 1.0 44 104
r 0.964032 2 1 ack 40 ------- 0 3.1 1.0 42 100
+ 0.964032 1 2 tcp 552 ------- 0 1.0 3.1 62 109
- 0.964032 1 2 tcp 552 ------- 0 1.0 3.1 62 109
r 0.966427 1 2 tcp 552 ------- 0 1.0 3.1 60 105
+ 0.966427 2 3 tcp 552 ------- 0 1.0 3.1 60 105
- 0.967863 2 3 tcp 552 ------- 0 1.0 3.1 50 85
r 0.96805 2 3 tcp 552 ------- 0 1.0 3.1 47 79
+ 0.96805 3 2 ack 40 ------- 0 3.1 1.0 47 110
- 0.96805 3 2 ack 40 ------- 0 3.1 1.0 47 110
r 0.968592 3 2 ack 40 ------- 0 3.1 1.0 45 106
+ 0.968592 2 1 ack 40 ------- 0 3.1 1.0 45 106
- 0.968592 2 1 ack 40 ------- 0 3.1 1.0 45 106
r 0.968939 2 1 ack 40 ------- 0 3.1 1.0 43 102
+ 0.968939 1 2 tcp 552 ------- 0 1.0 3.1 63 111
- 0.968939 1 2 tcp 552 ------- 0 1.0 3.1 63 111
r 0.971333 1 2 tcp 552 ------- 0 1.0 3.1 61 107
+ 0.971333 2 3 tcp 552 ------- 0 1.0 3.1 61 107
- 0.97277 2 3 tcp 552 ------- 0 1.0 3.1 51 87
r 0.972956 2 3 tcp 552 ------- 0 1.0 3.1 48 81
+ 0.972956 3 2 ack 40 ------- 0 3.1 1.0 48 112
- 0.972956 3 2 ack 40 ------- 0 3.1 1.0 48 112
r 0.973499 3 2 ack 40 ------- 0 3.1 1.0 46 108
+ 0.973499 2 1 ack 40 ------- 0 3.1 1.0 46 108
- 0.973499 2 1 ack 40 ------- 0 3.1 1.0 46 108
r 0.973845 2 1 ack 40 ------- 0 3.1 1.0 44 104
+ 0.973845 1 2 tcp 552 ------- 0 1.0 3.1 64 113
- 0.973845 1 2 tcp 552 ------- 0 1.0 3.1 64 113
r 0.97624 1 2 tcp 552 ------- 0 1.0 3.1 62 109
+ 0.97624 2 3 tcp 552 ------- 0 1.0 3.1 62 109
- 0.977676 2 3 tcp 552 ------- 0 1.0 3.1 52 89
r 0.977863 2 3 tcp 552 ------- 0 1.0 3.1 49 83
+ 0.977863 3 2 ack 40 ------- 0 3.1 1.0 49 114
- 0.977863 3 2 ack 40 ------- 0 3.1 1.0 49 114
r 0.978405 3 2 ack 40 ------- 0 3.1 1.0 47 110
+ 0.978405 2 1 ack 40 ------- 0 3.1 1.0 47 110
- 0.978405 2 1 ack 40 ------- 0 3.1 1.0 47 110
r 0.978752 2 1 ack 40 ------- 0 3.1 1.0 45 106